ID,Name,InChIKey,SMILES,Solubility
A-1878,4-[(4-aminophenyl)methyl]aniline,YBRVSVVVWCFQMG-UHFFFAOYSA-N,Nc1ccc(Cc2ccc(N)cc2)cc1,-2.2929334424
A-1879,"6-ethoxy-2,2,4-trimethyl-1,2-dihydroquinoline",DECIPOUIJURFOJ-UHFFFAOYSA-N,CCOc1ccc2NC(C)(C)C=C(C)c2c1,-3.332762335
A-1881,nonanal,GYHFUZHODSMOHU-UHFFFAOYSA-N,CCCCCCCCC=O,-3.1487064763
A-1884,1-(2-furyl)methanamine,DDRPCXLAQZKBJP-UHFFFAOYSA-N,NCc1occc1,1.0127047417
A-1885,"2,2,2-trifluoroethan-1-ol",RHQDFWAXVIIEBN-UHFFFAOYSA-N,OCC(F)(F)F,0.9998306582
A-1886,"2,4,6,8,10-pentamethyl-1,3,5,7,9,2,4,6,8,10-pentaoxapentasilecane",PUNGSQUVTIDKNU-UHFFFAOYSA-N,C[Si]1O[Si](C)O[Si](C)O[Si](C)O[Si](C)O1,0.5292955703
A-1887,2-(2-ethoxyethoxy)ethyl acetate,FPZWZCWUIYYYBU-UHFFFAOYSA-N,CCOCCOCCOC(C)=O,0.7539645196
A-1890,[tris(isopropenyloxy)vinyl]silane,GBFVZTUQONJGSL-UHFFFAOYSA-N,CC(=C)O[Si](OC(C)=C)(OC(C)=C)C=C,0.6452233386
A-1892,"butane-1,4-diol",WERYXYBDKMZEQL-UHFFFAOYSA-N,OCCCCO,1.0451691789
A-1893,"hexamethyl-1,3,5,2,4,6-trioxatrisilinane",HTDJPCNNEPUOOQ-UHFFFAOYSA-N,C[Si]1(C)O[Si](C)(C)O[Si](C)(C)O1,0.652738306
A-1896,"propane-1,2,3-triol",PEDCQBHIVMGVHV-UHFFFAOYSA-N,OCC(O)CO,1.0357686635
A-1898,tetraethylazanium bromide,HWCKGOZZJDHMNC-UHFFFAOYSA-M,[Br-].CC[N+](CC)(CC)CC,0.6774520067
A-1899,tetraethylazanium chloride,YMBCJWGVCUEGHA-UHFFFAOYSA-M,[Cl-].CC[N+](CC)(CC)CC,0.7806565243
A-1900,tripotassium methylsilanetris(olate),MQGFFOISLVUDQU-UHFFFAOYSA-N,[K+].C[Si](O)(O)[O-],0.8786634333
A-1901,"butan-2-one O,O',O''-(methylsilylidyne)trioxime",OGZPYBBKQGPQNU-DABLZPOSSA-N,CC/C(C)=N/O[Si@](C)(O\N=C(C)\CC)O\N=C(C)\CC,-0.4792340167
A-1902,peroxol,MHAJPDPJQMAIIY-UHFFFAOYSA-N,OO,0.4683422926
A-1903,"2-amino-5-[(4-amino-3-sulfophenyl)[(1E)-3-sulfocyclohexa-2,5-dien-1-ylidene]methyl]-3-methylbenzene-1-sulfonic acid",WZRZTHMJPHPAMU-UHFFFAOYSA-L,[Na+].[Na+].CC1=CC(/C=C(C1=N)[S]([O-])(=O)=O)=C(/c2ccc(N)c(c2)[S](O)(=O)=O)c3ccc(N)c(c3)[S]([O-])(=O)=O,-1.7675632436
A-1904,2-hydroxy-4-methylbenzoic acid,NJESAXZANHETJV-UHFFFAOYSA-N,Cc1ccc(C(O)=O)c(O)c1,-1.1822691023
A-1907,2-hydroxy-5-nitrobenzoic acid,PPDRLQLKHRZIJC-UHFFFAOYSA-N,OC(=O)c1cc(ccc1O)[N+]([O-])=O,-2.262733408
A-1912,"1,2-dimethyl-4-nitrobenzene",HFZKOYWDLDYELC-UHFFFAOYSA-N,Cc1ccc(cc1C)[N+]([O-])=O,-3.1794512484
A-1913,1-chloro-2-(chloromethyl)benzene,BASMANVIUSSIIM-UHFFFAOYSA-N,ClCc1ccccc1Cl,-3.2069094899
A-1914,2-phenylacetonitrile,SUSQOBVLVYHIEX-UHFFFAOYSA-N,N#CCc1ccccc1,-3.0687460001
A-1916,"4,4'-methylenebis(2,6-dimethylphenol)",AZZWZMUXHALBCQ-UHFFFAOYSA-N,Cc1cc(Cc2cc(C)c(O)c(C)c2)cc(C)c1O,-3.408824851
A-1921,sodium dodecylbenzenesulfonate,GVGUFUZHNYFZLC-UHFFFAOYSA-N,[Na].CCCCCCCCCCCCO[S](=O)(=O)c1ccccc1,-3.543437239
A-1922,tridecan-1-ol,XFRVVPUIAFSTFO-UHFFFAOYSA-N,CCCCCCCCCCCCCO,-3.3018240282
A-1923,bismuth(3+) citrate,ANERHPOLUMFRDC-UHFFFAOYSA-K,[Bi+3].OC(CC([O-])=O)(CC([O-])=O)C([O-])=O,-4.5597626401
A-1925,2-tert-butylcyclohexyl ethyl carbonate,ZHWLEUGSDGROJS-UHFFFAOYSA-N,CCOC(=O)OC1CCCCC1C(C)(C)C,-4.3211402828
A-1926,"4-[4-(4-chlorophenyl)-4-hydroxypiperidin-1-yl]-N,N-dimethyl-2,2-diphenylbutanamide",PGYPOBZJRVSMDS-UHFFFAOYSA-N,[H+].[Cl-].CN(C)C(=O)C(CCN1CCC(O)(CC1)c2ccc(Cl)cc2)(c3ccccc3)c4ccccc4,-4.6731215617
A-1927,hexanoyl hexanoate,PKHMTIRCAFTBDS-UHFFFAOYSA-N,CCCCCC(=O)OC(=O)CCCCC,-4.296805043
A-1930,undecan-2-one,KYWIYKKSMDLRDC-UHFFFAOYSA-N,CCCCCCCCCC(C)=O,-4.2018206695
A-1931,[2-(tert-butylperoxy)propan-2-yl]benzene,BIISIZOQPWZPPS-UHFFFAOYSA-N,CC(C)(C)OOC(C)(C)c1ccccc1,-4.2909341502
A-1933,2-methylheptyl 2-sulfanylacetate,RZBBHEJLECUBJT-UHFFFAOYSA-N,CC(C)CCCCCOC(=O)CS,-4.2850368969
A-1934,"octa-1,7-diene",XWJBRBSPAODJER-UHFFFAOYSA-N,C=CCCCCC=C,-4.0232731502
A-1939,2-tert-butylcyclohexyl acetate,FINOAUDUYKVGDS-WDEREUQCSA-N,CC(=O)O[C@@H]1CCCC[C@@H]1C(C)(C)C,-4.2973358545
A-1940,"5-chloro-2-(2,4-dichlorophenoxy)phenol",XEFQLINVKFYRCS-UHFFFAOYSA-N,Oc1cc(Cl)ccc1Oc2ccc(Cl)cc2Cl,-4.4617160697
A-1942,N-[3-(dimethylamino)propyl]octadecanamide,WWVIUVHFPSALDO-UHFFFAOYSA-N,CCCCCCCCCCCCCCCCCC(=O)NCCCN(C)C,-4.5666142382
A-1944,sodium 4-(4-(2-hydroxynaphthalenylazo)phenylazo)benzenesulphonate,AXECONFFMZNCKN-SRZPWQCFSA-N,[Na+].O[S](=O)(=O)c1ccc(cc1)N=Nc2ccc(N\N=C3/C(=O)C=Cc4ccccc34)cc2,-4.65844166
A-1946,magnesium(2+) ion dihydroxide,VTHJTEIRLNZDEV-UHFFFAOYSA-L,[OH-].[OH-].[Mg++],-4.4691448782
A-1949,"1,3,3-trimethyl-2-oxabicyclo[2.2.2]octane; 1-methyl-4-(prop-1-en-2-yl)cyclohex-1-ene; 2,6,6-trimethylbicyclo[3.1.1]hept-2-ene",YZYRWEREXOLDRZ-UHFFFAOYSA-N,CC(=C)C1CCC(=CC1)C.CC2=CCC3CC2C3(C)C.CC45CCC(CC4)C(C)(C)O5,-5.3356859318
A-1953,dodecan-1-ol,LQZZUXJYWNFBMV-UHFFFAOYSA-N,CCCCCCCCCCCCO,-4.9847464515
A-1954,copper thiocyanate,PDZKZMQQDCHTNF-UHFFFAOYSA-M,[Cu+].[S-]C#N,-4.8040109101
A-1956,"O,O,S-tris(4-aminophenyl) thiophosphate",MBUAAMOJATXYKR-UHFFFAOYSA-N,Nc1ccc(O[P](=S)(Oc2ccc(N)cc2)Oc3ccc(N)cc3)cc1,-5.3094071365
A-1958,2-[4-[2-[4-[2-(2-methylprop-2-enoyloxy)ethoxy]phenyl]propan-2-yl]phenoxy]ethyl 2-methylprop-2-enoate,VIYWVRIBDZTTMH-UHFFFAOYSA-N,CC(=C)C(=O)OCCOc1ccc(cc1)C(C)(C)c2ccc(OCCOC(=O)C(C)=C)cc2,-5.3792018861
A-1959,"(3aR,5aS,9aS,9bR)-3a,6,6,9a-tetramethyl-dodecahydronaphtho[2,1-b]furan",YPZUZOLGGMJZJO-LQKXBSAESA-N,CC1(C)CCC[C@@]2(C)[C@H]1CC[C@@]3(C)OCC[C@H]23,-5.0994877858
A-1960,"3a,6,6,9a-tetramethyl-dodecahydronaphtho[2,1-b]furan",YPZUZOLGGMJZJO-UHFFFAOYSA-N,CC1(C)CCCC2(C)C1CCC3(C)OCCC23,-5.0994877858
A-1961,[(1E)-2-(diethoxymethyl)hept-1-en-1-yl]benzene,MPKOLWUWOADQCX-BMRADRMJSA-N,CCCCC\C(=C/c1ccccc1)C(OCC)OCC,-5.1720565184
A-1963,dilanthanum(3+) ion tricarbonate,NZPIUJUFIFZSPW-UHFFFAOYSA-H,[La+3].[La+3].[O-]C([O-])=O.[O-]C([O-])=O.[O-]C([O-])=O,-5.3958921156
A-1967,"N,N'-(3,3'-dimethylbiphenyl-4,4'-diyl)bis(3-oxobutanamide)",CRRLDLPBQWRVGN-UHFFFAOYSA-N,CC(=O)CC(=O)Nc1ccc(cc1C)c2ccc(NC(=O)CC(C)=O)c(C)c2,-5.3250182341
A-1968,N-(4-acetamidophenyl)-3-hydroxy-2-naphthamide,MSRUOXBBGPWHEG-UHFFFAOYSA-N,CC(=O)Nc1ccc(NC(=O)c2cc3ccccc3cc2O)cc1,-5.2503495118
A-1969,N-(5-chloro-2-methylphenyl)-3-hydroxynaphthalene-2-carboxamide,XZOACPDZZYNJER-UHFFFAOYSA-N,Cc1ccc(Cl)cc1NC(=O)c2cc3ccccc3cc2O,-5.2385590319
A-1970,neodymium(3+) ion trihydroxide,ZBAQHMBLDSQPHC-UHFFFAOYSA-K,[OH-].[OH-].[OH-].[Nd+3],-5.0353430041
A-1973,"(1,3-benzothiazol-2-ylsulfanyl)(tert-butyl)amine",IUJLOAKJZQBENM-UHFFFAOYSA-N,CC(C)(C)NSc1sc2ccccc2n1,-5.136722389
A-1974,hydrogen telluride,PORWMNRCUJJQNO-UHFFFAOYSA-N,[Te],-4.875401753
A-1978,"3,7-dimethyloct-6-en-1-yl butyrate",XQPZQXTWYZAXAK-UHFFFAOYSA-N,CCCC(=O)OCCC(C)CCC=C(C)C,-5.1426120809
A-1981,3-hydroxy-N-(4-methoxyphenyl)-2-naphthamide,UIXFPIHXQQZAGX-UHFFFAOYSA-N,COc1ccc(NC(=O)c2cc3ccccc3cc2O)cc1,-5.2632246549
A-1982,4-{1-[4-(cyanooxy)phenyl]ethyl}phenyl cyanate,SIZDMAYTWUINIG-UHFFFAOYSA-N,CC(c1ccc(OC#N)cc1)c2ccc(OC#N)cc2,-5.2179508887
A-1984,dichlorodioctylstannane,SBOSGIJGEHWBKV-UHFFFAOYSA-L,CCCCCCCC[Sn](Cl)(Cl)CCCCCCCC,-5.4150412012
A-1985,didysprosium trioxide,GEZAXHSNIQTPMM-UHFFFAOYSA-N,[O--].[O--].[O--].[Dy+3].[Dy+3],-5.3675853562
A-1986,dodecanal,HFJRKMMYBMWEAD-UHFFFAOYSA-N,CCCCCCCCCCCC=O,-5.0614595476
A-1991,"2-ethyl-2-methyl-1,3-dihydroperimidine",QOYINWMUFFDLBI-UHFFFAOYSA-N,CCC1(C)Nc2cccc3cccc(N1)c23,-3.2477605654
A-1994,2-(2-{2-[(2-ethylhexanoyl)oxy]ethoxy}ethoxy)ethyl 2-ethylhexanoate,FRQDZJMEHSJOPU-UHFFFAOYSA-N,CCCCC(CC)C(=O)OCCOCCOCCOC(=O)C(CC)CCCC,-5.4201521344
A-1995,"2-hydroxy-1-{1-[4-(2-hydroxy-2-methylpropanoyl)phenyl]-1,3,3-trimethyl-2,3-dihydro-1H-inden-5-yl}-2-methylpropan-1-one; 2-hydroxy-1-{3-[4-(2-hydroxy-2-methylpropanoyl)phenyl]-1,1,3-trimethyl-2,3-dihydro-1H-inden-5-yl}-2-methylpropan-1-one; 2-hydroxy-2-methyl-1-[4-(prop-1-en-2-yl)phenyl]propan-1-one",UKDKXXBYNYCFSX-UHFFFAOYSA-N,CC(=C)c1ccc(cc1)C(=O)C(C)(C)O.CC(C)(O)C(=O)c2ccc(cc2)C3(C)CC(C)(C)c4cc(ccc34)C(=O)C(C)(C)O.CC(C)(O)C(=O)c5ccc(cc5)C6(C)CC(C)(C)c7ccc(cc67)C(=O)C(C)(C)O,-5.8273288792
A-1997,"2-(1-amino-9,10-dioxo-9,10-dihydroanthracen-2-yl)-5H,10H-anthra[2,3-d][1,3]oxazole-5,10-dione",RHEVAQGXLUQWBM-UHFFFAOYSA-N,Nc1c(ccc2C(=O)c3ccccc3C(=O)c12)c4oc5cc6C(=O)c7ccccc7C(=O)c6cc5n4,-5.4964129822
A-1998,N-(4-ethoxyphenyl)-3-hydroxy-2-naphthamide,FYJKEJZGNQVNLC-UHFFFAOYSA-N,CCOc1ccc(NC(=O)c2cc3ccccc3cc2O)cc1,-5.3115405454
A-1999,"N-(5-chloro-2,4-dimethoxyphenyl)-3-hydroxy-2-naphthamide",XDWATWCCUTYUDE-UHFFFAOYSA-N,COc1cc(OC)c(NC(=O)c2cc3ccccc3cc2O)cc1Cl,-5.3775405806
A-2000,Vat brown 3,AAKMSGQPNUGLAZ-UHFFFAOYSA-N,O=C(Nc1cccc2C(=O)c3c4[nH]c5c(cc(NC(=O)c6ccccc6)c7C(=O)c8ccccc8C(=O)c57)c4ccc3C(=O)c12)c9ccccc9,-5.647161854
A-2001,1-(4-methoxyphenyl)-2-[(3-methoxyphenyl)sulfanyl]ethan-1-one,CXSKVBXJDSVPKS-UHFFFAOYSA-N,COc1ccc(cc1)C(=O)CSc2cccc(OC)c2,-5.284725265
A-2004,"Anthra[2,1,9-mna]naphtho[2,3-h]acridine-5,10,15(16H)-trione",HHKPGQSPFVLKMV-UHFFFAOYSA-N,O=C1c2ccccc2C(=O)c3c4Nc5ccc6c7ccccc7C(=O)c8ccc(c4ccc13)c5c68,-5.506567843
A-2005,"2,2'-oxybis(5,5-dimethyl-1,3,2-dioxaphosphinane) 2,2'-disulfide",GAUFKBQSTGCCOC-UHFFFAOYSA-N,CC1(C)CO[P](=S)(OC1)O[P]2(=S)OCC(C)(C)CO2,-5.3933833945
A-2007,1-methyl-4-(propan-2-yl)cyclohex-1-ene,FAMJUFMHYAFYNU-UHFFFAOYSA-N,CC(C)C1CCC(=CC1)C,-5.0103439368
A-2008,"6-({bis[(5-carboxypentyl)amino]-1,3,5-triazin-2-yl}amino)hexanoic acid",BKKWPPMEXIXECW-UHFFFAOYSA-N,OC(=O)CCCCCNc1nc(NCCCCCC(O)=O)nc(NCCCCCC(O)=O)n1,-2.5423613079
A-2009,2-methyloctyl prop-2-enoate,LVGFPWDANALGOY-UHFFFAOYSA-N,CC(C)CCCCCCCOC(=O)C=C,-5.1999126975
A-2011,2-methylundecanal,NFAVNWJJYQAGNB-UHFFFAOYSA-N,CCCCCCCCCC(C)C=O,-5.151636178
A-2012,"4-{bis[4-(dimethylamino)phenyl]methyl}-N,N-dimethylaniline",OAZWDJGLIYNYMU-UHFFFAOYSA-N,CN(C)c1ccc(cc1)C(c2ccc(cc2)N(C)C)c3ccc(cc3)N(C)C,-5.4583984127
A-2013,digadolinium(3+) ion trioxalate,SQORATIMOBOFKR-UHFFFAOYSA-H,[Gd+3].[Gd+3].[O-]C(=O)C([O-])=O.[O-]C(=O)C([O-])=O.[O-]C(=O)C([O-])=O,-5.6484005482
A-2015,yttrium,VWQVUPCCIRVNHF-UHFFFAOYSA-N,[Y],-4.8349877189
A-2016,"1,8-bis(phenylsulfanyl)-9,10-dihydroanthracene-9,10-dione",CNRPDCKHCGUKDK-UHFFFAOYSA-N,O=C1c2cccc(Sc3ccccc3)c2C(=O)c4c(Sc5ccccc5)cccc14,-5.5173350431
A-2017,"praseodymium(III,IV) oxide",HPZIIFVSYNLWNX-UHFFFAOYSA-N,[O--].[O--].[O--].[O--].[O--].[O--].[O--].[O--].[O--].[O--].[O--].[Pr+3].[Pr+3].[Pr+3].[Pr+3].[Pr+3].[Pr+3],-5.9054078645
A-2019,"4,4'-cyclohexane-1,1-diylbis(2-methylphenol)",SVOBELCYOCEECO-UHFFFAOYSA-N,Cc1cc(ccc1O)C2(CCCCC2)c3ccc(O)c(C)c3,-5.3715223063
A-2022,calcium 3-hydroxy-4-[(E)-2-(4-methyl-2-sulfonatophenyl)diazen-1-yl]naphthalene-2-carboxylate,WANIKCLUTOABTP-LRZQPWDCSA-L,[Ca++].Cc1ccc(N\N=C\2C(=O)C(=Cc3ccccc23)C([O-])=O)c(c1)[S]([O-])(=O)=O,-5.5486422223
A-2025,"1,4-bis(2-ethylhexyl) (2E)-but-2-enedioate",ROPXFXOUUANXRR-BUHFOSPRSA-N,CCCCC(CC)COC(=O)\C=C\C(=O)OCC(CC)CCCC,-5.4565752567
A-2026,"2,2-dimethylpropane-1,3-diyl dibenzoate",DYJIIMFHSZKBDY-UHFFFAOYSA-N,CC(C)(COC(=O)c1ccccc1)COC(=O)c2ccccc2,-5.4227803586
A-2029,calcium bis(metaphosphate),JBCDXVJTWRWCSR-UHFFFAOYSA-L,[Ca++].O[PH]([O-])=O.O[PH]([O-])=O,-5.253149755
A-2030,(ethoxymethoxy)cyclododecane,VQNUNMBDOKEZHS-UHFFFAOYSA-N,CCOCOC1CCCCCCCCCCC1,-5.3353199677
A-2032,"2,6-dibromo-4-[2-(3,5-dibromo-4-hydroxyphenyl)propan-2-yl]phenol",VEORPZCZECFIRK-UHFFFAOYSA-N,CC(C)(c1cc(Br)c(O)c(Br)c1)c2cc(Br)c(O)c(Br)c2,-5.6941064111
A-2033,bis(3-methylbutyl) phthalate,JANBFCARANRIKJ-UHFFFAOYSA-N,CC(C)CCOC(=O)c1ccccc1C(=O)OCCC(C)C,-5.4448989106
A-2035,zinc bis(diethyldithiocarbamate),RKQOSDAEEGPRER-UHFFFAOYSA-L,[Zn++].CCN(CC)C([S-])=S.CCN(CC)C([S-])=S,-5.5333331166
A-2036,tetraphenyl m-phenylene bis(phosphate),OWICEWMBIBPFAH-UHFFFAOYSA-N,O=[P](Oc1ccccc1)(Oc2ccccc2)Oc3cccc(O[P](=O)(Oc4ccccc4)Oc5ccccc5)c3,-5.7380720068
A-2037,9H-carbazole,UJOBWOGCFQCDNV-UHFFFAOYSA-N,[nH]1c2ccccc2c3ccccc13,-5.2104276195
A-2039,"1,2-dicyclohexyl benzene-1,2-dicarboxylate",VOWAEIGWURALJQ-UHFFFAOYSA-N,O=C(OC1CCCCC1)c2ccccc2C(=O)OC3CCCCC3,-5.5126055421
A-2041,Prokan,VTHUYJIXSMGYOQ-UHFFFAOYSA-N,CC(=O)OC1(CCC2C3CCC4=CC(=O)CCC4(C)C3CCC12C)C(C)=O,-5.5668107327
A-2042,"(9Z)-N,N-bis(2-hydroxyethyl)octadec-9-enamide",LPMBTLLQQJBUOO-MDZDMXLPSA-N,CCCCCCCC/C=C/CCCCCCCC(=O)N(CCO)CCO,-5.567720212
A-2043,"1,3-diethyl 2-({4-[3-ethoxy-2-(ethoxycarbonyl)-3-oxoprop-1-en-1-yl]phenyl}methylidene)propanedioate",YUOKTNQLLUHUEK-UHFFFAOYSA-N,CCOC(=O)C(=Cc1ccc(cc1)C=C(C(=O)OCC)C(=O)OCC)C(=O)OCC,-5.6216352692
A-2045,2-phenylethyl (2E)-3-phenylprop-2-enoate,MJQVZIANGRDJBT-VAWYXSNFSA-N,O=C(OCCc1ccccc1)/C=C/c2ccccc2,-5.4019396274
A-2046,N-(2-hydroxyethyl)octadecanamide,OTGQIQQTPXJQRG-UHFFFAOYSA-N,CCCCCCCCCCCCCCCCCC(=O)NCCO,-5.5152815814
A-2047,N-(4-chlorophenyl)-3-hydroxy-2-naphthamide,OHAXNCGNVGGWSO-UHFFFAOYSA-N,Oc1cc2ccccc2cc1C(=O)Nc3ccc(Cl)cc3,-5.4738386427
A-2049,"bis(1,2,2,6,6-pentamethylpiperidin-4-yl) 2-butyl-2-[(3,5-di-tert-butyl-4-hydroxyphenyl)methyl]propanedioate",FLPKSBDJMLUTEX-UHFFFAOYSA-N,CCCCC(Cc1cc(c(O)c(c1)C(C)(C)C)C(C)(C)C)(C(=O)OC2CC(C)(C)N(C)C(C)(C)C2)C(=O)OC3CC(C)(C)N(C)C(C)(C)C3,-5.8357203688
A-2053,2-bromo-N-[4-chloro-2-(2-fluorobenzoyl)phenyl]acetamide,WUZSFIKFFXBHMB-UHFFFAOYSA-N,Fc1ccccc1C(=O)c2cc(Cl)ccc2NC(=O)CBr,-5.5693457861
A-2055,Cedryl acetate,HQKQRXZEXPXXIG-GXTNNVKYSA-N,C[C@@H]1CC[C@H]2C(C)(C)C3CC12CCC3(C)OC(C)=O,-5.4266410391
A-2057,12-hydroxyoctadecanoic acid,ULQISTXYYBZJSJ-UHFFFAOYSA-N,CCCCCCC(O)CCCCCCCCCCC(O)=O,-5.4883700889
A-2060,"Bisbenzimidazo[2,1-b:1',2'-j]benzo[lmn][3,8]phenanthroline-6,9-dione",YMEPVPIIHONYLV-UHFFFAOYSA-N,O=C1n2c3ccccc3nc2c4ccc5c6nc7ccccc7n6C(=O)c8ccc1c4c58,-5.6330558482
A-2062,barium 3-hydroxy-4-[(4-methyl-2-sulphonatophenyl)azo]-2-naphthoate,LPMJODPDQRKJEH-LRZQPWDCSA-L,[Ba++].Cc1ccc(N\N=C\2C(=O)C(=Cc3ccccc23)C([O-])=O)c(c1)[S]([O-])(=O)=O,-5.7351471063
A-2063,4-{2-[4-(cyanooxy)phenyl]propan-2-yl}phenyl cyanate,AHZMUXQJTGRNHT-UHFFFAOYSA-N,CC(C)(c1ccc(OC#N)cc1)c2ccc(OC#N)cc2,-5.4695583775
A-2065,lauronitrile,VXCUURYYWGCLIH-UHFFFAOYSA-N,CCCCCCCCCCCC#N,-5.2899699473
A-2073,1-chloro-4-(4-chlorobenzenesulfonyl)benzene,GPAPPPVRLPGFEQ-UHFFFAOYSA-N,Clc1ccc(cc1)[S](=O)(=O)c2ccc(Cl)cc2,-5.5236360799
A-2077,"1-N,4-N-bis(5-methylhexan-2-yl)benzene-1,4-diamine",ZJNLYGOUHDJHMG-UHFFFAOYSA-N,CC(C)CCC(C)Nc1ccc(NC(C)CCC(C)C)cc1,-5.5751336546
A-2079,2-cyclododecylpropan-1-ol,WKHTUDYDJUHYMK-UHFFFAOYSA-N,CC(CO)C1CCCCCCCCCCC1,-5.4517941085
A-2083,methyl undec-10-enoate,KISVAASFGZJBCY-UHFFFAOYSA-N,COC(=O)CCCCCCCCC=C,-5.3975153521
A-2084,"dialuminium tris[2-(2,4,5,7-tetrabromo-6-oxido-3-oxoxanthen-9-yl)-3,4,5,6-tetrachlorobenzoate]",SYHCUZIBEFBVNF-UHFFFAOYSA-H,[Al+3].[Al+3].[O-]C(=O)c1c(Cl)c(Cl)c(Cl)c(Cl)c1C2=C3C=C(Br)C(=O)C(=C3Oc4c(Br)c([O-])c(Br)cc24)Br.[O-]C(=O)c5c(Cl)c(Cl)c(Cl)c(Cl)c5C6=C7C=C(Br)C(=O)C(=C7Oc8c(Br)c([O-])c(Br)cc68)Br.[O-]C(=O)c9c(Cl)c(Cl)c(Cl)c(Cl)c9C%10=C%11C=C(Br)C(=O)C(=C%11Oc%12c(Br)c([O-])c(Br)cc%10%12)Br,-6.4900690111
A-2085,[(oxobismuthanyl)oxy]bismuthanone,TYIXMATWDRGMPF-UHFFFAOYSA-N,[O--].[O--].[O--].[Bi+3].[Bi+3],-5.7779248217
A-2086,Estrone,DNXHEGUUPJUMQT-CBZIJGRNSA-N,C[C@]12CC[C@H]3[C@@H](CCc4cc(O)ccc34)[C@@H]1CCC2=O,-5.5511481213
A-2087,"2,6-di-tert-butyl-4-methylphenol",NLZUEZXRPGMBCV-UHFFFAOYSA-N,Cc1cc(c(O)c(c1)C(C)(C)C)C(C)(C)C,-5.462311288
A-2088,"3,3,4,4,5,5,6,6,7,7,8,8,8-tridecafluorooctyl prop-2-enoate 3,3,4,4,5,5,6,6,7,7,8,8,9,9,10,10,10-heptadecafluorodecyl prop-2-enoate 3,3,4,4,5,5,6,6,7,7,8,8,9,9,10,10,11,11,12,12,12-henicosafluorododecyl prop-2-enoate 3,3,4,4,5,5,6,6,7,7,8,8,9,9,10,10,11,11,12,12,13,13,14,14,14-pentacosafluorotetradecyl prop-2-enoate",HXKIEMJEEMWSAX-UHFFFAOYSA-N,FC(F)(F)C(F)(F)C(F)(F)C(F)(F)C(F)(F)C(F)(F)CCOC(=O)C=C.FC(F)(F)C(F)(F)C(F)(F)C(F)(F)C(F)(F)C(F)(F)C(F)(F)C(F)(F)CCOC(=O)C=C.FC(F)(F)C(F)(F)C(F)(F)C(F)(F)C(F)(F)C(F)(F)C(F)(F)C(F)(F)C(F)(F)C(F)(F)CCOC(=O)C=C.FC(F)(F)C(F)(F)C(F)(F)C(F)(F)C(F)(F)C(F)(F)C(F)(F)C(F)(F)C(F)(F)C(F)(F)C(F)(F)C(F)(F)CCOC(=O)C=C,-6.4814770267
A-2089,"2,4,6-tris(butan-2-yl)phenol",LAVMWOGIDKQCDK-UHFFFAOYSA-N,CCC(C)c1cc(C(C)CC)c(O)c(c1)C(C)CC,-5.5497933448
A-2091,N-phenylnaphthalen-2-amine,KEQFTVQCIQJIQW-UHFFFAOYSA-N,N(c1ccccc1)c2ccc3ccccc3c2,-5.4959148461
A-2093,oxoyttrium,APUGIHICMSAKGR-UHFFFAOYSA-N,O=[Y],-5.1756981481
A-2094,yttrium oxide,RUDFQVOCFDJEEF-UHFFFAOYSA-N,[O--].[O--].[O--].[Y+3].[Y+3],-5.5086432075
A-2095,"2,6,10-trimethylundec-9-enal",UEGBWDUVDAKUGA-UHFFFAOYSA-N,CC(CCCC(C)C=O)CCC=C(C)C,-5.496890424
A-2096,"N-(1,4-dimethylpentyl)-N'-phenylbenzene-1,4-diamine",UHJVLUYSDYOULM-UHFFFAOYSA-N,CC(C)CCC(C)Nc1ccc(Nc2ccccc2)cc1,-5.624837561
A-2097,(5Z)-cyclohexadec-5-en-1-one,ABRIMXGLNHCLIP-VURMDHGXSA-N,O=C1CCCCCCCCCC\C=C/CCC1,-5.5607322784
A-2098,"17-hydroxy-3-methoxyestra-2,5(10)-diene-17-carbonitrile",MEEGGHJZTZFSBQ-UHFFFAOYSA-N,COC1=CCC2=C(CCC3C2CCC4(C)C3CCC4(O)C#N)C1,-5.6832424476
A-2099,"Dodecahydro-3,8,8,11a-tetramethyl-5H-3,5a-epoxynaphth(2,1-c)oxepin",PHNCACYNYORRNS-UHFFFAOYSA-N,CC1(C)CCCC2(C)C1CCC34COC(C)(CCC23)O4,-5.6453848366
A-2100,1-methyl-4-(propan-2-yl)cyclohexane,CFJYNSNXFXLKNS-UHFFFAOYSA-N,CC1CCC(CC1)C(C)C,-5.3545731075
A-2101,barium(2+) ion bis(5-chloro-2-[(E)-2-(2-hydroxynaphthalen-1-yl)diazen-1-yl]-4-methylbenzene-1-sulfonate),JNIGYQOBELCEIZ-MAKDUZDQSA-L,[Ba++].Cc1cc(N\N=C\2C(=O)C=Cc3ccccc23)c(cc1Cl)[S]([O-])(=O)=O.Cc4cc(N\N=C\5C(=O)C=Cc6ccccc56)c(cc4Cl)[S]([O-])(=O)=O,-6.156487599
A-2104,(2R)-heptan-2-yl 2-[(5-chloroquinolin-8-yl)oxy]acetate (2S)-heptan-2-yl 2-[(5-chloroquinolin-8-yl)oxy]acetate,COYBRKAVBMYYSF-UHFFFAOYSA-N,CCCCCC(C)OC(=O)COc1ccc(Cl)c2cccnc12,-5.7479695323
A-2106,2-[(2-hydroxyethyl)(octadecyl)amino]ethan-1-ol,NDLNTMNRNCENRZ-UHFFFAOYSA-N,CCCCCCCCCCCCCCCCCCN(CCO)CCO,-5.7752741917
A-2110,(10Z)-1-oxacycloheptadec-10-en-2-one,QILMAYXCYBTEDM-IWQZZHSRSA-N,O=C1CCCCCCC\C=C/CCCCCCO1,-5.6293975546
A-2113,"methyl 2-amino-4-[(2,5-dichlorophenyl)carbamoyl]benzoate",PDWBHZYCNIOXCB-UHFFFAOYSA-N,COC(=O)c1ccc(NC(=O)c2cc(Cl)ccc2Cl)cc1N,-5.7900649855
A-2115,1-{[3-(triethoxysilyl)propyl]sulfanyl}octan-1-one,JPPLPDOXWBVPCW-UHFFFAOYSA-N,CCCCCCCC(=O)SCCC[Si](OCC)(OCC)OCC,-5.8326804614
A-2117,"1,1':3',1''-terphenyl-2'-ol",ATGFTMUSEPZNJD-UHFFFAOYSA-N,Oc1c(cccc1c2ccccc2)c3ccccc3,-5.6839101049
A-2118,"(5E)-5-[(4-chlorophenyl)methylidene]-2,2-dimethylcyclopentan-1-one",DHZKFHRKOKWCKA-PKNBQFBNSA-N,CC1(C)CC\C(=C/c2ccc(Cl)cc2)C1=O,-5.6715911936
A-2119,"2-{[3,3-bis(3-tert-butyl-4-hydroxyphenyl)butanoyl]oxy}ethyl 3,3-bis(3-tert-butyl-4-hydroxyphenyl)butanoate",JOWXNCPELQZFHF-UHFFFAOYSA-N,CC(C)(C)c1cc(ccc1O)C(C)(CC(=O)OCCOC(=O)CC(C)(c2ccc(O)c(c2)C(C)(C)C)c3ccc(O)c(c3)C(C)(C)C)c4ccc(O)c(c4)C(C)(C)C,-6.2014353624
A-2122,"(1-methylethyl)-1,1'-biphenyl",KWSHGRJUSUJPQD-UHFFFAOYSA-N,CC(C)c1ccc(cc1)c2ccccc2,-5.6098577743
A-2126,"4-[(4-amino-3,5-diethylphenyl)methyl]-2,6-diethylaniline",NWIVYGKSHSJHEF-UHFFFAOYSA-N,CCc1cc(Cc2cc(CC)c(N)c(CC)c2)cc(CC)c1N,-5.8485879471
A-2129,2-[4-(2-{4-[2-(prop-2-enoyloxy)ethoxy]phenyl}propan-2-yl)phenoxy]ethyl prop-2-enoate,XWUNIDGEMNBBAQ-UHFFFAOYSA-N,CC(C)(c1ccc(OCCOC(=O)C=C)cc1)c2ccc(OCCOC(=O)C=C)cc2,-5.999481603
A-2131,"Benzenamine, N-phenyl-, styrenated",BRWSDEFCJGIRLV-UHFFFAOYSA-N,CC(c1ccccc1)c2ccc(Nc3ccc(cc3)C(C)c4ccccc4)cc2,-5.9641687617
A-2132,"1,3-dimethyl-5-propylbenzene; 6,6,22,22-tetrabutyloctapentacontane; anthracene; phenylbenzene; tetraheptacontane",UPDSRWJBVPKSST-UHFFFAOYSA-N,CCCCCCCCCCCCCCCCCCCCCCCCCCCCCCCCCCCCCCCCCCCCCCCCCCCCCCCCCCCCCCCCCCCCCCCCCC.CCCCCCCCCCCCCCCCCCCCCCCCCCCCCCCCCCCCC(CCCC)(CCCC)CCCCCCCCCCCCCCCC(CCCC)(CCCC)CCCCC.CCCc1cc(C)cc(C)c1.c2ccc(cc2)c3ccccc3.c4ccc5cc6ccccc6cc5c4,-6.8063026109
A-2135,"2,6-diethylanthracene; 9,9-dipropylicosane; tricosane",XIJNZQQUHMHCIW-UHFFFAOYSA-N,CCCCCCCCCCCCCCCCCCCCCCC.CCCCCCCCCCCC(CCC)(CCC)CCCCCCCC.CCc1ccc2cc3cc(CC)ccc3cc2c1,-6.3644088649
A-2136,2-ethylhexyl benzoate,UADWUILHKRXHMM-UHFFFAOYSA-N,CCCCC(CC)COC(=O)c1ccccc1,-5.767784581
A-2137,"3,3,5-trimethylcyclohexyl 2-hydroxybenzoate",WSSJONWNBBTCMG-UHFFFAOYSA-N,CC1CC(CC(C)(C)C1)OC(=O)c2ccccc2O,-5.8168194218
A-2138,"5,9-diethylhexadecane; anthracene; icosane",KESSGIXNZDGGFC-UHFFFAOYSA-N,CCCCCCCCCCCCCCCCCCCC.CCCCCCCC(CC)CCCC(CC)CCCC.c1ccc2cc3ccccc3cc2c1,-6.2691310175
A-2140,"methyl 4-[(2,5-dichlorophenyl)carbamoyl]-2-nitrobenzoate",BVBSCSYCFCDVEU-UHFFFAOYSA-N,COC(=O)c1ccc(cc1[N+]([O-])=O)C(=O)Nc2cc(Cl)ccc2Cl,-5.965154646
A-2142,"3,7-dimethyloct-6-en-1-yl (2E)-2-methylbut-2-enoate",UCFQYMKLDPWFHZ-MKMNVTDBSA-N,C\C=C(/C)C(=O)OCCC(C)CCC=C(C)C,-5.7917926889