ID,Name,InChIKey,SMILES,Solubility
C-1476,naproxen ester vd; naproxen [n-(carbamoylmethyl)-n-(methyl)carbamoyl]methyl ester,FQKXIOAPTXUHEK-UHFFFAOYSA-N,COC1=CC=C2C=C(C=CC2=C1)C(C)C(=O)OCC(=O)N(C)CC(N)=O,-3.78
C-1477,1-(propoxycarbonyl)thiabendazole,CFXHTONTAWFEIR-UHFFFAOYSA-N,CCCOC(=O)[N]1C2=C(C=CC=C2)N=C1C3=CSC=N3,-3.52
C-1478,coumatetralyl,ULSLJYXHZDTLQK-UHFFFAOYSA-N,OC1=C(C2CCCC3=CC=CC=C23)C(=O)OC4=CC=CC=C14,-4.86
C-1479,"entacapone analog (2 b); (e)-2-cyano-n,n-diethyl-3-(3-butylaminocarbonyloxy-4-hydroxy-5-nitrophenyl)propenamide",LAYLZIREKXYMDV-ZROIWOOFSA-N,CCCCNC(=O)OC1=C(O)C(=CC(=C1)\C=C(C#N)/C(=O)N(CC)CC)[N+]([O-])=O,-2.32
C-1481,"2,2',3,4,4',5,5'-heptachlorodiphenyl  ether",YBYYCWMPXZRBNJ-UHFFFAOYSA-N,ClC1=C(Cl)C=C(OC2=C(Cl)C(=C(Cl)C(=C2)Cl)Cl)C(=C1)Cl,-9.5
C-1483,"2,3,3',4,4',5,6-heptachlorodiphenyl  ether",QLSBRXLSQINWHM-UHFFFAOYSA-N,ClC1=CC=C(OC2=C(Cl)C(=C(Cl)C(=C2Cl)Cl)Cl)C=C1Cl,-9.46
C-1484,"entacapone analog (2 c); (e)-2-cyano-n,n-diethyl-3-(3-tert-butylaminocarbonyloxy-4-hydroxy-5-nitrophenyl)propenamide",BSVGCJGACKDNDR-JYRVWZFOSA-N,CCN(CC)C(=O)\C(=C/C1=CC(=C(O)C(=C1)[N+]([O-])=O)OC(=O)NC(C)(C)C)C#N,-3.53
C-1485,"2,2',3,4',5,5',6-heptachlorodiphenyl  ether",BHJCMMGUFRZLKK-UHFFFAOYSA-N,ClC1=C(Cl)C=C(OC2=C(Cl)C(=CC(=C2Cl)Cl)Cl)C(=C1)Cl,-9.05
C-1487,"2,2',3,3',4',5,6-heptachlorodiphenyl  ether",RXPQVFMDOJTCKE-UHFFFAOYSA-N,ClC1=CC=C(OC2=C(Cl)C(=CC(=C2Cl)Cl)Cl)C(=C1Cl)Cl,-9.09
C-1488,"2,2',3,3',4,5,6'-heptachlorodiphenyl  ether",DQYYZAABYZAOOC-UHFFFAOYSA-N,ClC1=CC=C(Cl)C(=C1Cl)OC2=C(Cl)C(=C(Cl)C(=C2)Cl)Cl,-8.89
C-1489,1-(isobutoxycarbonyl)thiabendazole; 1-isobutoxycarbonyl-2-(thiazol-4-yl)benzimidazole,APCDMDJMHYSEPA-UHFFFAOYSA-N,CC(C)COC(=O)[N]1C2=C(C=CC=C2)N=C1C3=CSC=N3,-4.17
C-1498,"leptophos, o-analog",MAKUYRKZFGSMMG-UHFFFAOYSA-N,CO[P](=O)(OC1=C(Cl)C=C(Br)C(=C1)Cl)C2=CC=CC=C2,-4.99
C-1499,"2,2',3,4,4',5,5',6-octachlorodiphenyl  ether",PKOSPVZTRLMBSK-UHFFFAOYSA-N,ClC1=C(Cl)C=C(OC2=C(Cl)C(=C(Cl)C(=C2Cl)Cl)Cl)C(=C1)Cl,-10.1
C-1500,"2,2',3,3',4,4',5,6-octachlorodiphenyl  ether",YHUPMPHVHYBYJE-UHFFFAOYSA-N,ClC1=C(Cl)C(=C(OC2=C(Cl)C(=C(Cl)C(=C2Cl)Cl)Cl)C=C1)Cl,-10.6
C-1501,"2,2',3,3',4,5,5',6'-octachlorodiphenyl  ether",MRHQOXCYYPFGEE-UHFFFAOYSA-N,ClC1=C(Cl)C(=C(Cl)C(=C1)Cl)OC2=C(Cl)C(=C(Cl)C(=C2)Cl)Cl,-10.1
C-1503,(z)-pyriminobac-methyl,USSIUIGPBLPCDF-JMIUGGIZSA-N,CO\N=C(C)/C1=CC=CC(=C1C(=O)OC)OC2=NC(=CC(=N2)OC)OC,-3.31
C-1506,omeprazole,SUBDBMMJDZJVOS-UHFFFAOYSA-N,COC1=CC2=C([NH]C(=N2)[S](=O)CC3=C(C)C(=C(C)C=N3)OC)C=C1,-4.28
C-1507,(r)-quizalofop-ethyl,OSUHJPCHFDQAIT-UHFFFAOYSA-N,CCOC(=O)C(C)OC1=CC=C(OC2=NC3=C(C=C(Cl)C=C3)N=C2)C=C1,-5.97
C-1508,"13h-dibenzo[a,i]carbazole",IUILSTHMSGDSHQ-UHFFFAOYSA-N,[NH]1C2=C(C=CC3=C2C=CC=C3)C4=C1C5=C(C=CC=C5)C=C4,-7.41
C-1509,acyclovir  ester  x;  omega-acyclovir (4-morpholin-4-ylmethyl)benzoate,JSDGCANKASDATC-UHFFFAOYSA-N,NC1=NC2=C(N=C[N]2COCCOC(=O)C3=CC=C(CN4CCOCC4)C=C3)C(=O)N1,-2.75
C-1512,hexaflumuron;  consult,RGNPBRKPHBKNKX-UHFFFAOYSA-N,FC(F)C(F)(F)OC1=C(Cl)C=C(NC(=O)NC(=O)C2=C(F)C=CC=C2F)C=C1Cl,-5.82
C-1513,bromofenoxim,XTFNPKDYCLFGPV-OMCISZLKSA-N,OC1=C(Br)C=C(\C=N\OC2=C(C=C(C=C2)[N+]([O-])=O)[N+]([O-])=O)C=C1Br,-5.19
C-1514,difenoconazole,BQYJATMQXGBDHF-UHFFFAOYSA-N,CC1COC(C[N]2C=NC=N2)(O1)C3=C(Cl)C=C(OC4=CC=C(Cl)C=C4)C=C3,-4.91
C-1515,dithianon,PYZSVQVRHDXQSL-UHFFFAOYSA-N,O=C1C2=C(SC(=C(S2)C#N)C#N)C(=O)C3=C1C=CC=C3,-6.33
C-1523,clofazimine,WDQPAMHFFCXSNU-UHFFFAOYSA-N,CC(C)N=C1C=C2N(C3=CC=C(Cl)C=C3)C4=C(C=CC=C4)N=C2C=C1NC5=CC=C(Cl)C=C5,-6.24
C-1524,paclitaxel;  taxol a,RCINICONZNJXQF-UHFFFAOYSA-N,CC(=O)OC1C(=O)C2(C)C(O)CC3OCC3(OC(C)=O)C2C(OC(=O)C4=CC=CC=C4)C5(O)CC(OC(=O)C(O)C(NC(=O)C6=CC=CC=C6)C7=CC=CC=C7)C(=C1C5(C)C)C,-6.33
C-1526,hexamethyleneimine;  homopiperidine;  azacycloheptane; azepane,ZSIQJIWKELUFRJ-UHFFFAOYSA-N,C1CCCNCC1,-0.49
C-1529,"hexamethylethane;  2,2,3,3-tetramethylbutane",OMMLUKLXGSRPHK-UHFFFAOYSA-N,CC(C)(C)C(C)(C)C,-4.87
C-1531,"2,5-dimethylpiperazine (trans)",NSMWYRLQHIXVAP-UHFFFAOYSA-N,CC1CNC(C)CN1,0.49
C-1536,dl-isovaline;  dl-2-amino-2-methylbutanoic acid,GCHPUFAZSONQIV-UHFFFAOYSA-N,CCC(C)(N)C(O)=O,0.38
C-1537,4-heptanone;  dipropyl  ketone,HCFAJYNVAYBARA-UHFFFAOYSA-N,CCCC(=O)CCC,-1.48
C-1539,d-quercitol;  pentahydroxycyclohexane,IMPKVMRTXBRHRB-UHFFFAOYSA-N,OC1CC(O)C(O)C(O)C1O,-0.17
C-1541,ethambutol; emb,AEUTYOVWOVBAKS-UHFFFAOYSA-N,CCC(CO)NCCNC(CC)CO,0.57
C-1542,amantadine;  1-aminoadamantane,DKNWSYNQZKUICI-UHFFFAOYSA-N,N[C]12C[CH]3[CH2]C([CH2][CH](C3)C1)C2,-1.85
C-1546,"(e)-1,2-diiodoethene;  1,2-diiodoethylene (trans)",CVOGMKGEVNGRSK-OWOJBTEDSA-N,I\C=C\I,-3.22
C-1548,methylglyoxime,KFTHGQZJWAXFGG-ZUVMSYQZSA-N,CC(\C=N\O)=N/O,-0.35
C-1551,dl-norvaline;  dl-2-aminopentanoic  acid,SNDPXSYFESPGGJ-UHFFFAOYSA-N,CCCC(N)C(O)=O,-0.11
C-1558,3-bromocrotonic  acid (trans);  3-bromo-(e)-2-butenoic acid,JFQJADVATLPJRF-IHWYPQMZSA-N,C\C(Br)=C\C(O)=O,-0.6
C-1561,"2-bromo-2,2-diethylacetamide",ACEYAMOAGUDVAQ-UHFFFAOYSA-N,CCC(Br)(CC)C(N)=O,-1.44
C-1564,dimethylglyoxime,JGUQDUKBUKFFRO-CIIODKQPSA-N,CC(=N\O)\C(C)=N\O,-2.16
C-1569,"dl-methylsuccinic  acid;  dl-2-methyl-1,4-butanedioic acid",WXUAQHNMJWJLTG-UHFFFAOYSA-N,CC(CC(O)=O)C(O)=O,0.48
C-1570,3-iodocrotonic  acid (trans);  3-iodo-(e)-2-butenoic acid,CSDFWNXJFJAWAM-IHWYPQMZSA-N,C\C(I)=C\C(O)=O,-1.16
C-1571,pentadecanoic acid,WQEPLUUGTLDZJY-UHFFFAOYSA-N,CCCCCCCCCCCCCCC(O)=O,-4.31
C-1572,glycylglycine,YMAWOPBAYDPSLA-UHFFFAOYSA-N,NCC(=O)NCC(O)=O,0.1
C-1573,3-methyladipic  acid,SYEOWUNSTUDKGM-UHFFFAOYSA-N,CC(CCC(O)=O)CC(O)=O,0.09
C-1580,"cycluron; 3-cyclooctyl-1,1-dimethylurea",DQZCVNGCTZLGAQ-UHFFFAOYSA-N,CN(C)C(=O)NC1CCCCCCC1,-2.26
C-1582,"shikimic  acid;  1-carboxy-3,4,5-trihydroxy-1-cyclohexene",JXOHGGNKMLTUBP-UHFFFAOYSA-N,OC1CC(=CC(O)C1O)C(O)=O,0.01
C-1583,cantharidin,DHZBEENLJMYSHQ-UHFFFAOYSA-N,CC12C3CCC(O3)C1(C)C(=O)OC2=O,-3.82
C-1586,heptadecanoic acid;  margaric acid,KEMQGTRYUADPNZ-UHFFFAOYSA-N,CCCCCCCCCCCCCCCCC(O)=O,-4.69
C-1588,"trans, trans-muconic acid;  trans, trans-1,3-butadiene-1,4-dicarboxylic acid;  trans,trans-hexa-2,4-dienedioic acid",TXXHDPDFNKHHGW-ZPUQHVIOSA-N,OC(=O)\C=C\C=C\C(O)=O,-2.85
C-1589,"2-hydroxy-3,3,3-trichloropropanoic acid;  beta,beta,beta-trichlorolactic  acid;",PBXLMODGBAXKQR-UHFFFAOYSA-N,OC(C(O)=O)C(Cl)(Cl)Cl,0.36
C-1592,stearic  acid;  octadecanoic  acid,QIQXTHQIDYTFRH-UHFFFAOYSA-N,CCCCCCCCCCCCCCCCCC(O)=O,-4.98
C-1593,succinimide,KZNICNPSHKQLFF-UHFFFAOYSA-N,O=C1CCC(=O)N1,0.39
C-1594,endo-bornyl  acetate;  endo-borneol acetate,KGEKLUUHTZCSIP-UHFFFAOYSA-N,CC(=O)OC1CC2CCC1(C)C2(C)C,-3.93
C-1601,cycloserine;  4-aminoisoxazolidine-3-one,DYDCUQKUCUHJBH-UHFFFAOYSA-N,NC1CONC1=O,-0.01
C-1603,3-cyclohexyl-2-mercaptopropenoic  acid,FSQVNBYCGIYCSF-VURMDHGXSA-N,OC(=O)/C(S)=C/C1CCCCC1,-2.67
C-1604,"1-cyclohexene-1,4-dicarboxylic  acid",KAAQPMPUQHKLLE-UHFFFAOYSA-N,OC(=O)C1CCC(=CC1)C(O)=O,-2.93
C-1605,"1,11-undecanedicarboxylic acid;  tridecanedioic  acid;  brassylic  acid",DXNCZXXFRKPEPY-UHFFFAOYSA-N,OC(=O)CCCCCCCCCCCC(O)=O,-3.79
C-1608,2-methylbenzyl  alcohol,XPNGNIFUDRPBFJ-UHFFFAOYSA-N,CC1=CC=CC=C1CO,-1.09
C-1612,"2,6-diaminopyridine",VHNQIURBCCNWDN-UHFFFAOYSA-N,NC1=NC(=CC=C1)N,-0.08
C-1613,"2,3-diaminopyridine",ZZYXNRREDYWPLN-UHFFFAOYSA-N,NC1=CC=CN=C1N,-1.75
C-1619,vinyl stearate;  octadecanoic acid vinyl ester,AFSIMBWBBOJPJG-UHFFFAOYSA-N,CCCCCCCCCCCCCCCCCC(=O)OC=C,-6.15
C-1626,5-methylcytosine,LRSASMSXMSNRBT-UHFFFAOYSA-N,CC1=CNC(=O)N=C1N,-1.44
C-1627,methyl  2-allyl-2-ethylmalonurate,GOMPBNNIROZLMY-UHFFFAOYSA-N,CCC(CC=C)(C(=O)NC(N)=O)C(=O)OC,-1.92
C-1630,Beta-d-Fructose,BJHIKXHVCXFQLS-UHFFFAOYSA-N,OCC(O)C(O)C(O)C(=O)CO,0.32
C-1632,5-aminouracil,BISHACNKZIBDFM-UHFFFAOYSA-N,NC1=CNC(=O)NC1=O,-2.41
C-1633,"1,2-dicyanobenzene;  phthalonitrile",XQZYPMVTSDWCCE-UHFFFAOYSA-N,N#CC1=C(C=CC=C1)C#N,-2.38
C-1634,cartap,IRUJZVNXZWPBMU-UHFFFAOYSA-N,CN(C)C(CSC(N)=O)CSC(N)=O,-0.07
C-1636,phenylglyoxal (monohydrate),OJUGVDODNPJEEC-UHFFFAOYSA-N,O=CC(=O)C1=CC=CC=C1,-0.74
C-1638,5-chlorofuran-2-carboxylic acid,NNTBDUTXMIMRKK-UHFFFAOYSA-N,OC(=O)C1=CC=C(Cl)O1,-1.69
C-1641,phthalaldehyde,ZWLUXSQADUDCSB-UHFFFAOYSA-N,O=CC1=CC=CC=C1C=O,-1.34
C-1642,tybamate,PRBORDFJHHAISJ-UHFFFAOYSA-N,CCCCNC(=O)OCC(C)(CCC)COC(N)=O,-2.74
C-1645,4-phenylbutyric  acid;  4-phenylbutanoic acid,OBKXEAXTFZPCHS-UHFFFAOYSA-N,OC(=O)CCCC1=CC=CC=C1,-1.78
C-1646,"5,5-spirocycloheptylbarbituric  acid;  spiro-5,5-hexamethylenebarbituric acid",RSWPVXFVQHCCCI-UHFFFAOYSA-N,O=C1NC(=O)C2(CCCCCC2)C(=O)N1,-2.98
C-1647,dopamine;  3-hydroxytyramine,VYFYYTLLBUKUHU-UHFFFAOYSA-N,NCCC1=CC(=C(O)C=C1)O,0.12
C-1648,propionanilide,ZTHRQJQJODGZHV-UHFFFAOYSA-N,CCC(=O)NC1=CC=CC=C1,-1.55
C-1650,5-ethyl-5-propyl-2-thiobarbituric acid,LMMVXCXLEUVMEE-UHFFFAOYSA-N,CCCC1(CC)C(=O)NC(=S)NC1=O,-2.8
C-1653,5alpha-androst-16-en-3-one;   5alpha-androstenone,HFVMLYAGWXSTQI-UHFFFAOYSA-N,CC12CCC3C(CCC4CC(=O)CCC34C)C1CC=C2,-6.07
C-1655,5-allyl-5-butylbarbituric  acid,RRWVWLGUQPLOMY-UHFFFAOYSA-N,CCCCC1(CC=C)C(=O)NC(=O)NC1=O,-2.17
C-1657,"3,4-dimethylbenzoic  acid",OPVAJFQBSDUNQA-UHFFFAOYSA-N,CC1=C(C)C=C(C=C1)C(O)=O,-3.16
C-1658,"2,4-dimethylbenzoic  acid",BKYWPNROPGQIFZ-UHFFFAOYSA-N,CC1=CC(=C(C=C1)C(O)=O)C,-2.97
C-1659,"2,5-dimethylbenzoic  acid",XZRHNAFEYMSXRG-UHFFFAOYSA-N,CC1=CC(=C(C)C=C1)C(O)=O,-2.92
C-1660,4-amino-n-methyl-benzamide,XAGFYNSCWICYPA-UHFFFAOYSA-N,CNC(=O)C1=CC=C(N)C=C1,-1.24
C-1661,4-isothiocyanatophenol,HIPHYBWWZWRZOV-UHFFFAOYSA-N,OC1=CC=C(C=C1)N=C=S,-2.67
C-1662,5-butyl-5-ethyl-2-thiobarbituric acid,GRNZOXPRBXDLPY-UHFFFAOYSA-N,CCCCC1(CC)C(=O)NC(=S)NC1=O,-3.14
C-1663,3-isothiocyanatophenol,BWZDLMGVEVSNBI-UHFFFAOYSA-N,OC1=CC=CC(=C1)N=C=S,-1.99
C-1665,nandrolone,NPAGDVCDWIYMMC-UHFFFAOYSA-N,CC12CCC3C(CCC4=CC(=O)CCC34)C1CCC2O,-3.02
C-1666,5-methylbarbituric acid,GOMAEJQBTWAPAN-UHFFFAOYSA-N,CC1C(=O)NC(=O)NC1=O,-1.13
C-1667,"3,6-dimethylpiperazine-2,5-dione",WWISPHBAYBECQZ-UHFFFAOYSA-N,CC1NC(=O)C(C)NC1=O,-0.75
C-1671,abietic  acid,RSWGJHLUYNHPMX-UHFFFAOYSA-N,CC(C)C1=CC2=CCC3C(C)(CCCC3(C)C(O)=O)C2CC1,-3.8
C-1672,benzoylformic  acid;  phenylglyoxylic  acid,FAQJJMHZNSSFSM-UHFFFAOYSA-N,OC(=O)C(=O)C1=CC=CC=C1,-0.37
C-1673,"androstane-3beta,11beta-diol-17-one; androstane-3,11-diol-17-one;",PIXFHVWJOVNKQK-UHFFFAOYSA-N,CC12CCC(O)CC1CCC3C4CCC(=O)C4(C)CC(O)C23,-3.59
C-1674,3-cyanobenzoic  acid,GYLKKXHEIIFTJH-UHFFFAOYSA-N,OC(=O)C1=CC(=CC=C1)C#N,-2.63
C-1676,"methyl  2,6-dimethyl-2-(1-cyclohexen-1-yl)malonurate",DDCCQNVMPXJUAY-UHFFFAOYSA-N,CNC(=O)NC(=O)C(C)(C(=O)OC)C1=CCCCC1,-2.68
C-1677,5-ethyl-5-pentyl-2-thiobarbituric  acid,SVRNITUASJCBQJ-UHFFFAOYSA-N,CCCCCC1(CC)C(=O)NC(=S)NC1=O,-3.71
C-1678,n-(hydroxymethyl)thiobenzamide,ULLWVDKMTKASGV-UHFFFAOYSA-N,OCNC(=S)C1=CC=CC=C1,-1.14
C-1680,4-(3-adamantan-1-ylureido)butanoic acid,NJUKVGCFDZUOHB-UHFFFAOYSA-N,OC(=O)CCCNC(=O)N[C]12C[CH]3[CH2]C([CH2][CH](C3)C1)C2,-1.6
C-1681,3-methylsalicylic acid; 2-hydroxy-3-methylbenzoic acid,WHSXTWFYRGOBGO-UHFFFAOYSA-N,CC1=CC=CC(=C1O)C(O)=O,-2.04
C-1682,6-methylsalicylic acid; 2-hydroxy-6-methylbenzoic acid,HCJMNOSIAGSZBM-UHFFFAOYSA-N,CC1=CC=CC(=C1C(O)=O)O,-2.04
C-1685,vamidothion,LESVOLZBIFDZGS-UHFFFAOYSA-N,CNC(=O)C(C)SCCS[P](=O)(OC)OC,0.54
C-1686,3-bromofuran-2-carboxylic acid,UZBGSJZFBUOJNE-UHFFFAOYSA-N,OC(=O)C1=C(Br)C=CO1,-1.17
C-1687,crimidine;  2-chloro-4-dimethylamino-6-methylpyrimidine,BWCXPHAQSYYKEB-UHFFFAOYSA-N,CN(C)C1=C(C)N=C(Cl)N=C1,-1.26
C-1689,5-ethyl-5-hexyl-2-thiobarbituric  acid,MWKKOAYCASKCLO-UHFFFAOYSA-N,CCCCCCC1(CC)C(=O)NC(=S)NC1=O,-4.08
C-1690,"5,5-spirononamethylenebarbituric acid",JXEFLYKRWPXVBB-UHFFFAOYSA-N,O=C1NC(=O)C2(CCCCCCCCC2)C(=O)N1,-4.59
C-1691,prasterone formate,HTTHUZJPMIHIOQ-UHFFFAOYSA-N,CC12CCC3C(CC=C4CC(CCC34C)OC=O)C1CCC2=O,-4.41
C-1692,"2,4-dihydroxybenzoic  acid;  beta-resorcylic  acid",UIAFKZKHHVMJGS-UHFFFAOYSA-N,OC(=O)C1=CC=C(O)C=C1O,-1.41
C-1693,"3-isobutylpiperazine-2,5-dione",VQFHWKRNHGHZTK-UHFFFAOYSA-N,CC(C)CC1NC(=O)CNC1=O,-1.25
C-1696,imidazole-2-sulfonic acid,LYLDIIUFTYRPPK-UHFFFAOYSA-N,O[S](=O)(=O)C1=NC=C[NH]1,-0.3
C-1697,"5-phenyl-2,4-pentadienoic  acid",FEIQOMCWGDNMHM-KBXRYBNXSA-N,OC(=O)/C=C/C=C/C1=CC=CC=C1,-3.64
C-1699,stanolone formate,ZQSXNBHXKJQHBH-UHFFFAOYSA-N,CC12CCC(=O)CC1CCC3C4CCC(OC=O)C4(C)CCC23,-5.32
C-1700,1-ethoxy-4-isothiocyanatobenzene,REEKOMRZYJXXNR-UHFFFAOYSA-N,CCOC1=CC=C(C=C1)N=C=S,-4.26
C-1701,"methoxymethyl  2-cyhexen-1-yl-2,6-dimethylmalonurate",UZDLWQVGUQTYLF-UHFFFAOYSA-N,CNC(=O)NC(=O)C(C)(C(=O)OCOC)C1=CCCCC1,-2.42
C-1703,n-hydroxymethyl-4-methoxybenzamide,UFEJBJDMZBIZLV-UHFFFAOYSA-N,COC1=CC=C(C=C1)C(=O)NCO,-1.22
C-1705,"(z)-3-chloro-(e)-3-phenylpropenoic acid (cis-cl, trans-c6h5)",SYLUOHMELSXJDK-VURMDHGXSA-N,OC(=O)/C=C(Cl)/C1=CC=CC=C1,-2.77
C-1706,n-hydroxymethyl-3-methoxybenzamide,OVYQBYCEGNAQGH-UHFFFAOYSA-N,COC1=CC=CC(=C1)C(=O)NCO,-1.29
C-1710,4-hexylbenzoic acid,CPEPWESLFZVUEP-UHFFFAOYSA-N,CCCCCCC1=CC=C(C=C1)C(O)=O,-3.65
C-1712,8-methylpurine,UZQYFLWZKIMYKS-UHFFFAOYSA-N,CC1=NC2=C([NH]1)C=NC=N2,-0.41
C-1713,4-bromophenyl  isothiocyanate;  4-isothiocyanatobromobenzene,XQACWEBGSZBLRG-UHFFFAOYSA-N,BrC1=CC=C(C=C1)N=C=S,-4.27
C-1717,testosterone formate,LMUMOFOWZKACOU-UHFFFAOYSA-N,CC12CCC3C(CCC4=CC(=O)CCC34C)C1CCC2OC=O,-4.93
C-1718,4-acetylphenyl  isothiocyanate;  1-acetyl-4-isothiocyanatobenzene,KAKXOESNHIUYJT-UHFFFAOYSA-N,CC(=O)C1=CC=C(C=C1)N=C=S,-4.02
C-1720,8-aminopurine,IKZRFGGARFKJOA-UHFFFAOYSA-N,NC1=NC2=C([NH]1)N=CN=C2,-2.43
C-1721,2-mercaptocinnamic  acid;  2-mercapto-3-phenylpropenoic acid,NAEHAPZYAHRUTE-VURMDHGXSA-N,OC(=O)/C(S)=C/C1=CC=CC=C1,-2.96
C-1722,2-mercapto-3-phenylpropionic  acid;  2-mercapto-3-phenylpropanoic acid,HGIOOMCLOWLFTJ-UHFFFAOYSA-N,OC(=O)C(S)CC1=CC=CC=C1,-1.56
C-1727,4-(4-chlorophenoxy)butyric acid;  4-(4-chlorophenoxy)butanoic acid,SIYAHZSHQIPQLY-UHFFFAOYSA-N,OC(=O)CCCOC1=CC=C(Cl)C=C1,-3.29
C-1729,"2,3-pyridinedicarboxylic  acid;  quinolinic  acid",GJAWHXHKYYXBSV-UHFFFAOYSA-N,OC(=O)C1=CC=CN=C1C(O)=O,-1.48
C-1730,n-piperidin-1-ylmethylbenzamide,ATCWBLHLEMDUCP-UHFFFAOYSA-N,O=C(NCN1CCCCC1)C2=CC=CC=C2,-2.15
C-1731,4-acetylphenyl acetate;  acetic acid 4-acetylphenyl ester;  4-acetoxyacetophenone,SMIOEQSLJNNKQF-UHFFFAOYSA-N,CC(=O)OC1=CC=C(C=C1)C(C)=O,-1.52
C-1734,4-acetoxybenzamide;  4-carbamoylphenyl  acetate,BFASOGCHMDYMBM-UHFFFAOYSA-N,CC(=O)OC1=CC=C(C=C1)C(N)=O,-1.64
C-1735,1-acetyl-5-fluorouracil,OVGDAVVFKDPXIC-UHFFFAOYSA-N,CC(=O)N1C=C(F)C(=O)NC1=O,-0.6
C-1736,3-nitrophenyl  isothiocyanate;  3-isothiocyanatonitrobenzene,OEZXLKSZOAWNJU-UHFFFAOYSA-N,[O-][N+](=O)C1=CC=CC(=C1)N=C=S,-3.55
C-1737,3-(2-aminoethyl)indole;  tryptamine,APJYDQYYACXCRM-UHFFFAOYSA-N,NCCC1=C[NH]C2=C1C=CC=C2,-3.3
C-1738,lithocholic  acid;  3alpha-hydroxy-5beta-cholanoic  acid,SMEROWZSTRWXGI-UHFFFAOYSA-N,CC(CCC(O)=O)C1CCC2C3CCC4CC(O)CCC4(C)C3CCC12C,-7.34
C-1739,3-acetyl-5-fluorouracil,JUZNVIUTDSYVKA-UHFFFAOYSA-N,CC(=O)N1C(=O)NC=C(F)C1=O,-0.6
C-1740,7-alpha-hydroxy-5beta-cholanoic  acid,JVMCMMXFADJQKU-UHFFFAOYSA-N,CC(CCC(O)=O)C1CCC2C3C(O)CC4CCCCC4(C)C3CCC12C,-6.46
C-1743,"1,3-diisothiocyanatobenzene",BOLANQNHTGVOMY-UHFFFAOYSA-N,S=C=NC1=CC=CC(=C1)N=C=S,-4.7
C-1745,"prasterone  acetate;  dehydroepiandrosterone  acetate; prasterone acetate; 5,6-dehydroisoandrosterone acetate",NCMZQTLCXHGLOK-UHFFFAOYSA-N,CC(=O)OC1CCC2(C)C3CCC4(C)C(CCC4=O)C3CC=C2C1,-4.53
C-1746,2-[(3-hydroxyphenyl)hydrazono]malononitrile,XPHHWVZARKXKST-UHFFFAOYSA-N,OC1=CC=CC(=C1)NN=C(C#N)C#N,-2.95
C-1747,2-methoxypurine,HKCXKNGHGLCFHK-UHFFFAOYSA-N,COC1=NC2=C([NH]C=N2)C=N1,-1.48
C-1748,fenethcarb,HUNDISMVCBSIKO-UHFFFAOYSA-N,CCC1=CC(=CC(=C1)OC(=O)NC)CC,-3.32
C-1751,ethyl  vanillate; 4-hydroxy-3-methoxybenzoic acid ethyl ester; vanillic acid ethyl ester,MWAYRGBWOVHDDZ-UHFFFAOYSA-N,CCOC(=O)C1=CC(=C(O)C=C1)OC,-1.72
C-1752,1-acetylamino-3-isothiocyanatobenzene,HLWVGQKSSIHUAX-UHFFFAOYSA-N,CC(=O)NC1=CC=CC(=C1)N=C=S,-3.53
C-1753,6-methoxypurine,GOILPRCCOREWQE-UHFFFAOYSA-N,COC1=NC=NC2=C1[NH]C=N2,-1.53
C-1755,8-hydroxymethylpurine,NFZTXJKXCFQRGN-UHFFFAOYSA-N,OCC1=NC2=C([NH]1)C=NC=N2,-1.52
C-1756,4-(methoxycarbonyl)acetanilide;  4-acetylaminobenzoic acid methyl ester,QKWTXJSLAZKYGV-UHFFFAOYSA-N,COC(=O)C1=CC=C(NC(C)=O)C=C1,-1.9
C-1758,7-methylpteridine,KOCYTWBTXZOUFS-UHFFFAOYSA-N,CC1=NC2=C(C=NC=N2)N=C1,-0.01
C-1762,"4,6-di(isopropylamino)-1,3,5-triazine-2(1h)-one;   ""hydroxypropazine""",RUOTUMSRCIMLJK-UHFFFAOYSA-N,CC(C)NC1=NC(=NC(=O)N1)NC(C)C,-2.81
C-1763,2-[(4-chlorophenyl)hydrazono]malononitrile,LLQAOIITXFNWED-UHFFFAOYSA-N,ClC1=CC=C(NN=C(C#N)C#N)C=C1,-4.36
C-1766,stanolone  acetate,ILCTUFVQFCIIDS-UHFFFAOYSA-N,CC(=O)OC1CCC2C3CCC4CC(=O)CCC4(C)C3CCC12C,-5.35
C-1767,"butane-1,2,3,4-tetracarboxylic  acid",GGAUUQHSCNMCAU-UHFFFAOYSA-N,OC(=O)CC(C(CC(O)=O)C(O)=O)C(O)=O,-0.18
C-1768,4-hydroxyisophthalic  acid,BCEQKAQCUWUNML-UHFFFAOYSA-N,OC(=O)C1=CC=C(O)C(=C1)C(O)=O,-1.78
C-1769,methyl 4-acetoxybenzoate;  4-acetoxybenzoic acid methyl ester,PGJQPLVEUVHSFQ-UHFFFAOYSA-N,COC(=O)C1=CC=C(OC(C)=O)C=C1,-2.5
C-1771,prasterone  propionate,XECLXJZDYKMJFL-UHFFFAOYSA-N,CCC(=O)OC1CCC2(C)C3CCC4(C)C(CCC4=O)C3CC=C2C1,-4.69
C-1772,7-aminopteridine,KJVGXOHRFWZQJB-UHFFFAOYSA-N,NC1=NC2=C(C=NC=N2)N=C1,-2.31
C-1773,6-aminopteridine,YJYIDNNTUMEKSG-UHFFFAOYSA-N,NC1=NC2=C(N=CN=C2)N=C1,-2.34
C-1775,n-butanoyl-n'-isonicotinoylhydrazine,CHJCAPPVUWJTCJ-UHFFFAOYSA-N,CCCC(=O)NNC(=O)C1=CC=NC=C1,-0.32
C-1777,4-ureidophenyl  acetate;  acetic acid 4-ureidophenyl ester,RHNWGZJHWWJART-UHFFFAOYSA-N,CC(=O)OC1=CC=C(NC(N)=O)C=C1,-2.49
C-1778,"2-hydroxyisophthalic acid; 2-hydroxy-1,3-benzenedicarboxylic acid",WVDGHGISNBRCAO-UHFFFAOYSA-N,OC(=O)C1=C(O)C(=CC=C1)C(O)=O,-2.11
C-1780,"2,6-diaminopurine",MSSXOMSJDRHRMC-UHFFFAOYSA-N,NC1=NC2=C(N=C[NH]2)C(=N1)N,-1.8
C-1781,"4-diethylamino-6-ethylamino-1,3,5-triazine-2(1h)-one;   ""hydroxytrietazine""",XLEPYYLPBFNICY-UHFFFAOYSA-N,CCNC1=NC(=NC(=O)N1)N(CC)CC,-3.64
C-1782,3-iodophenyl  isothiocyanate;  3-isothiocyanatoiodobenzene,LKCSXVAACHUTGC-UHFFFAOYSA-N,IC1=CC=CC(=C1)N=C=S,-4.68
C-1783,4-aminopteridine,VFATYAVSACUHHG-UHFFFAOYSA-N,NC1=NC=NC2=C1N=CC=N2,-2.31
C-1785,diosgenin,WQLVFSAGQJTQCK-UHFFFAOYSA-N,CC1CCC2(OC1)OC3CC4C5CC=C6CC(O)CCC6(C)C5CCC4(C)C3C2C,-7.32
C-1786,7-pteridinone;  8h-pteridin-7-one,OOIPDYWPGUHUJW-UHFFFAOYSA-N,O=C1NC2=C(C=NC=N2)N=C1,-2.12
C-1787,6-pteridinone;  5h-pteridin-6-one,ZUPDDKRJOMELAZ-UHFFFAOYSA-N,O=C1NC2=C(N=CN=C2)N=C1,-2.71
C-1789,2-pteridinone,VWXIHLCLIOQWRA-UHFFFAOYSA-N,O=C1NC2=C(C=N1)N=CC=N2,-2
C-1790,3-hydroxyphthalic acid,MNUOZFHYBCRUOD-UHFFFAOYSA-N,OC(=O)C1=CC=CC(=C1C(O)=O)O,-2.11
C-1791,4-ethoxycarbonylphenyl isothiocyanate;  4-isothiocyanatobenzoic acid ethyl ester,MLOJHUCMCKBDLV-UHFFFAOYSA-N,CCOC(=O)C1=CC=C(C=C1)N=C=S,-4.05
C-1792,"2-chloro-4-isopropylamino-6-propylamino-1,3,5-triazine",ZVPGYHKLHJKWML-UHFFFAOYSA-N,CCCNC1=NC(=NC(=N1)Cl)NC(C)C,-3.74
C-1793,isoguanine;  6-amino-3h-purin-2-one,DRAVOWXCEBXPTN-UHFFFAOYSA-N,NC1=NC(=O)NC2=C1N=C[NH]2,-3.38
C-1794,"purine-2,8-dione",PRUGQYWGIVNHEM-UHFFFAOYSA-N,O=C1NC2=C(N1)C=NC(=O)N2,-3.6
C-1800,"purine-6,8-dione",BYUOBSUZYQAFJM-UHFFFAOYSA-N,O=C1NC2=C(N1)C(=O)NC=N2,-2.96
C-1802,acetylmandelic acid (rac.);  alpha-acetoxyphenylacetic (rac.),OBCUSTCTKLTMBX-UHFFFAOYSA-N,CC(=O)OC(C(O)=O)C1=CC=CC=C1,-1.23
C-1803,"2,5-dichlorophenoxyacetic acid",YVPLLFUCNGVUAY-UHFFFAOYSA-N,OC(=O)COC1=C(Cl)C=CC(=C1)Cl,-2.62
C-1807,"2,6-dichlorophenoxyacetic  acid",KHZWIIFEFQBNKL-UHFFFAOYSA-N,OC(=O)COC1=C(Cl)C=CC=C1Cl,-2.15
C-1808,"6-dimethylaminopurine;  n6,n6-dimethyladenine",BVIAOQMSVZHOJM-UHFFFAOYSA-N,CN(C)C1=NC=NC2=C1N=C[NH]2,-1.3
C-1810,n-isonicotinoyl-n'-pentanoylhydrazine,VVQCYROSLKFIKX-UHFFFAOYSA-N,CCCCC(=O)NNC(=O)C1=CC=NC=C1,-1.01
C-1814,3-butyryl-5-fluorouracil,SHSQCPXGYRPQDR-UHFFFAOYSA-N,CCCC(=O)N1C(=O)NC=C(F)C1=O,-1.28
C-1816,4-acetamidophenyl  propionate; acetaminophen propionate; 4-propanoyloxyacetanilide,HFVPPHLKEKRGHI-UHFFFAOYSA-N,CCC(=O)OC1=CC=C(NC(C)=O)C=C1,-2.72
C-1817,4-toluenesulfonic acid hydrazide,ICGLPKIVTVWCFT-UHFFFAOYSA-N,CC1=CC=C(C=C1)[S](=O)(=O)NN,-1.48
C-1818,n-(5-chloro-4-methylthiazol-2-yl)propionamide,QHLFJSMAWAWVRU-UHFFFAOYSA-N,CCC(=O)NC1=NC(=C(Cl)S1)C,-3.06
C-1819,hyocholic  acid,DKPMWHFRUGMUKF-UHFFFAOYSA-N,CC(CCC(O)=O)C1CCC2C3C(O)C(O)C4CC(O)CCC4(C)C3CCC12C,-4.35
C-1823,2-chloropteridine,JISQBJRFTCXDEO-UHFFFAOYSA-N,ClC1=NC2=C(C=N1)N=CC=N2,-0.71