ID,Name,InChIKey,SMILES,Solubility
C-267,"4-isothiocyanato-n,n-dimethylaniline",HRDJPEMAGYHSJR-UHFFFAOYSA-N,CN(C)C1=CC=C(C=C1)N=C=S,-4.13
C-273,norethindrone;  norethisterone,VIKNJXKGJWUCNN-UHFFFAOYSA-N,CC12CCC3C(CCC4=CC(=O)CCC34)C1CCC2(O)C#C,-4.63
C-277,2-(phenylhydrazono)malononitrile,MENUYOGJCXAFFU-UHFFFAOYSA-N,N#CC(=NNC1=CC=CC=C1)C#N,-3.36
C-281,prostaglandin e1;  alprostadil,GMVPRGQOIOIIMI-OUKQBFOZSA-N,CCCCCC(O)/C=C/C1C(O)CC(=O)C1CCCCCCC(O)=O,-3.67
C-283,pentafluorophenol,XBNGYFFABRKICK-UHFFFAOYSA-N,OC1=C(F)C(=C(F)C(=C1F)F)F,-0.52
C-286,2-bromobenzoic acid,XRXMNWGCKISMOH-UHFFFAOYSA-N,OC(=O)C1=C(Br)C=CC=C1,-2.05
C-287,chlordimeform,STUSTWKEFDQFFZ-UHFFFAOYSA-N,CN(C)C=NC1=C(C)C=C(Cl)C=C1,-2.88
C-290,"spiro-5,5-undecamethylenebarbituric acid",HALJZHTVEIOBKZ-UHFFFAOYSA-N,O=C1NC(=O)C2(CCCCCCCCCCC2)C(=O)N1,-5.8
C-293,prostaglandin e2;  dinoprostone,XEYBRNLFEZDVAW-RTYMFESYSA-N,CCCCCC(O)/C=C/C1C(O)CC(=O)C1C\C=C\CCCC(O)=O,-2.47
C-300,aldrin,QBYJBZPUGVGKQQ-UHFFFAOYSA-N,ClC1=C(Cl)C2(Cl)C3C4CC(C=C4)C3C1(Cl)C2(Cl)Cl,-6.31
C-302,"androstenedione;  androst-4-ene-3,17-dione",AEMFNILZOJDQLW-UHFFFAOYSA-N,CC12CCC3C(CCC4=CC(=O)CCC34C)C1CCC2=O,-3.7
C-303,5-ethyl-5-(2-ethyl-1-cyclohexyliden-1-yl)barbituric  acid,AVOQDBLSHMVAMW-UHFFFAOYSA-N,CCC1=C(CCCC1)C2(CC)C(=O)NC(=O)NC2=O,-3.53
C-304,Norgestrel,WWYNJERNGUHSAO-UHFFFAOYSA-N,CCC12CCC3C(CCC4=CC(=O)CCC34)C1CCC2(O)C#C,-5.19
C-307,pteridine,CPNGPNLZQNNVQM-UHFFFAOYSA-N,C1=NC2=C(N=C1)N=CN=C2,0.02
C-308,tetramethrin; phthaltrin,CXBMCYHAMVGWJQ-UHFFFAOYSA-N,CC(C)=CC1C(C(=O)OCN2C(=O)C3=C(CCCC3)C2=O)C1(C)C,-5.26
C-310,hippuric  acid;  n-benzoylglycine,QIAFMBKCNZACKA-UHFFFAOYSA-N,OC(=O)CNC(=O)C1=CC=CC=C1,-1.69
C-314,"monuron;  3-(4-chlorophenyl)-1,1-dimethylurea;  telvar",BMLIZLVNXIYGCK-UHFFFAOYSA-N,CN(C)C(=O)NC1=CC=C(Cl)C=C1,-2.89
C-319,2-nitrobenzoic acid,SLAMLWHELXOEJZ-UHFFFAOYSA-N,OC(=O)C1=C(C=CC=C1)[N+]([O-])=O,-1.35
C-322,4-isothiocyanatobenzoic acid,RBEFRYQKJYMLCC-UHFFFAOYSA-N,OC(=O)C1=CC=C(C=C1)N=C=S,-3.98
C-327,baclofen;  4-amino-3-(4-chlorophenyl)butanoic acid,KPYSYYIEGFHWSV-UHFFFAOYSA-N,NCC(CC(O)=O)C1=CC=C(Cl)C=C1,-1.7
C-328,3-isothiocyanatobenzoic acid,PJRBPKOOGLKPFB-UHFFFAOYSA-N,OC(=O)C1=CC(=CC=C1)N=C=S,-3.25
C-329,"simazine;  2-chloro-4,6-di(ethylamino)-1,3,5-triazine",ODCWYMIRDDJXKW-UHFFFAOYSA-N,CCNC1=NC(=NC(=N1)Cl)NCC,-4.55
C-331,butallylonal;  5-(2-bromoallyl)-5-sec-butylbarbituric  acid,FWZMBTIUIQUJFF-UHFFFAOYSA-N,CCC(C)C1(CC(Br)=C)C(=O)NC(=O)NC1=O,-2.65
C-334,4-[3-(adamantan-1-yl)ureido]butanoic acid pentyl ester;  pentyl  4-[3'-(adamantan-1''-yl)ureido]butanoate,NQJCTWSXXZBQGX-UHFFFAOYSA-N,CCCCCOC(=O)CCCNC(=O)N[C]12C[CH]3[CH2]C([CH2][CH](C3)C1)C2,-2.32
C-343,ascorbic  acid;  vitamin c,CIWBSHSKHKDKBQ-UHFFFAOYSA-N,OCC(O)C1OC(=O)C(=C1O)O,0.28
C-359,5-bromosalicylic acid,IEJOONSLOGAXNO-UHFFFAOYSA-N,OC(=O)C1=C(O)C=CC(=C1)Br,-2.65
C-376,biphenyl;  diphenyl,ZUOUZKKEUPVFJK-UHFFFAOYSA-N,C1=CC=C(C=C1)C2=CC=CC=C2,-4.32
C-382,chenodeoxycholic  acid;  chenodiol,RUDATBOHQWOJDD-UHFFFAOYSA-N,CC(CCC(O)=O)C1CCC2C3C(O)CC4CC(O)CCC4(C)C3CCC12C,-4.57
C-384,4-iodophenyl  isothiocyanate;  4-isothiocyanatoiodobenzene,SNLGBRZZFRSXHA-UHFFFAOYSA-N,IC1=CC=C(C=C1)N=C=S,-4.05
C-389,progesterone,RJKFOVLPORLFTN-UHFFFAOYSA-N,CC(=O)C1CCC2C3CCC4=CC(=O)CCC4(C)C3CCC12C,-4.43
C-393,nitrofurazone,IAIWVQXQOWNYOU-FPYGCLRLSA-N,NC(=O)N/N=C/C1=CC=C(O1)[N+]([O-])=O,-2.98
C-401,"propazine;  2-chloro-4,6-bis(isopropylamino)-1,3,5-triazine",WJNRPILHGGKWCK-UHFFFAOYSA-N,CC(C)NC1=NC(=NC(=N1)Cl)NC(C)C,-4.46
C-406,triforine,RROQIUMZODEXOR-UHFFFAOYSA-N,ClC(Cl)(Cl)C(NC=O)N1CCN(CC1)C(NC=O)C(Cl)(Cl)Cl,-4.16
C-412,monolinuron;  3-(4-chlorophenyl)-1-methoxy-1-methylurea,LKJPSUCKSLORMF-UHFFFAOYSA-N,CON(C)C(=O)NC1=CC=C(Cl)C=C1,-2.47
C-415,4-chloro-3-nitrobenzoic  acid,DFXQXFGFOLXAPO-UHFFFAOYSA-N,OC(=O)C1=CC=C(Cl)C(=C1)[N+]([O-])=O,-2.76
C-416,"4-(2,4-dichlorophenoxy)butanoic  acid;  2,4-db",YIVXMZJTEQBPQO-UHFFFAOYSA-N,OC(=O)CCCOC1=C(Cl)C=C(Cl)C=C1,-3.57
C-420,cholic  acid,BHQCQFFYRZLCQQ-UHFFFAOYSA-N,CC(CCC(O)=O)C1CCC2C3C(O)CC4CC(O)CCC4(C)C3CC(O)C12C,-3.63
C-422,alclofenac,ARHWPKZXBHOEEE-UHFFFAOYSA-N,OC(=O)CC1=CC(=C(OCC=C)C=C1)Cl,-3.13
C-423,"1,4,5-trimethylnaphthalene",FSAWRQYDMHSDRN-UHFFFAOYSA-N,CC1=CC=C(C)C2=C1C=CC=C2C,-4.92
C-427,3-chloro-2-nitrobenzoic  acid,VCHSXYHBMFKRBK-UHFFFAOYSA-N,OC(=O)C1=C(C(=CC=C1)Cl)[N+]([O-])=O,-2.63
C-429,"1,5-dihydroxynaphthalene;  1,5-naphthalenediol",BOKGTLAJQHTOKE-UHFFFAOYSA-N,OC1=CC=CC2=C1C=CC=C2O,-2.92
C-430,hydralazine;  1-hydrazinophthalazine,RPTUSVTUFVMDQK-UHFFFAOYSA-N,NNC1=NN=CC2=C1C=CC=C2,-2.6
C-431,"dicamba;  2-methoxy-3,6-dichlorobenzoic acid",IWEDIXLBFLAXBO-UHFFFAOYSA-N,COC1=C(C(O)=O)C(=CC=C1Cl)Cl,-1.7
C-433,11-alpha-hydroxyprogesterone,BFZHCUBIASXHPK-UHFFFAOYSA-N,CC(=O)C1CCC2C3CCC4=CC(=O)CCC4(C)C3C(O)CC12C,-3.82
C-435,barban;  (3-chlorophenyl)carbamic acid 4-chloro-2-butynyl ester,MCOQHIWZJUDQIC-UHFFFAOYSA-N,ClCC#CCOC(=O)NC1=CC(=CC=C1)Cl,-4.24
C-437,testosterone  propionate,PDMMFKSKQVNJMI-UHFFFAOYSA-N,CCC(=O)OC1CCC2C3CCC4=CC(=O)CCC4(C)C3CCC12C,-5.37
C-438,"busulfan;  busulphan;  1,4-di(methylsulfonyloxy)butane",COVZYZSDYWQREU-UHFFFAOYSA-N,C[S](=O)(=O)OCCCCO[S](C)(=O)=O,-2.27
C-442,"chlorfenac; 2,3,6-trichlorophenylacetic  acid",QZXCCPZJCKEPSA-UHFFFAOYSA-N,OC(=O)CC1=C(Cl)C=CC(=C1Cl)Cl,-3.08
C-444,procyclidine,WYDUSKDSKCASEF-UHFFFAOYSA-N,OC(CCN1CCCC1)(C2CCCCC2)C3=CC=CC=C3,-4.7
C-451,carbofuran,DUEPRVBVGDRKAG-UHFFFAOYSA-N,CNC(=O)OC1=C2OC(C)(C)CC2=CC=C1,-2.42
C-463,trihexyphenidyl,HWHLPVGTWGOCJO-UHFFFAOYSA-N,OC(CCN1CCCCC1)(C2CCCCC2)C3=CC=CC=C3,-5.2
C-468,"2,3-dichloronaphthalene",SKGXUFZRYNGFJS-UHFFFAOYSA-N,ClC1=CC2=C(C=CC=C2)C=C1Cl,-5.36
C-471,"1,7-dichloronaphthalene",VQBIYCQGHAHVPN-UHFFFAOYSA-N,ClC1=CC2=C(C=CC=C2Cl)C=C1,-5.92
C-472,salicin,NGFMICBWJRZIBI-UHFFFAOYSA-N,OCC1OC(OC2=CC=CC=C2CO)C(O)C(O)C1O,-0.85
C-477,"1,5-dichloronaphthalene",ZBQZXTBAGBTUAD-UHFFFAOYSA-N,ClC1=CC=CC2=C1C=CC=C2Cl,-5.7
C-483,2-naphthyl  isothiocyanate; 2-isothiocyanatonaphthalene,RTMXPNYHPHIDHX-UHFFFAOYSA-N,S=C=NC1=CC2=CC=CC=C2C=C1,-4.44
C-486,corticosterone,OMFXVFTZEKFJBZ-UHFFFAOYSA-N,CC12CC(O)C3C(CCC4=CC(=O)CCC34C)C1CCC2C(=O)CO,-3.24
C-492,"2,4,5-trichlorophenoxyacetic  acid",SMYMJHWAQXWPDB-UHFFFAOYSA-N,OC(=O)COC1=C(Cl)C=C(Cl)C(=C1)Cl,-2.98
C-494,"2,3,4-trichlorophenoxyacetic  acid",QMSFHWZMMPPKIR-UHFFFAOYSA-N,OC(=O)COC1=C(Cl)C(=C(Cl)C=C1)Cl,-3.1
C-495,17-beta-estradiol,VOXZDWNPVJITMN-UHFFFAOYSA-N,CC12CCC3C(CCC4=CC(=CC=C34)O)C1CCC2O,-4.83
C-499,lovastatin,PCZOHLXUXFIOCF-UHFFFAOYSA-N,CCC(C)C(=O)OC1CC(C)C=C2C=CC(C)C(CCC3CC(O)CC(=O)O3)C12,-6.01
C-507,vitavax;  carboxin,GYSSRZJIHXQEHQ-UHFFFAOYSA-N,CC1=C(SCCO1)C(=O)NC2=CC=CC=C2,-3.14
C-508,nadolol,VWPOSFSPZNDTMJ-UHFFFAOYSA-N,CC(C)(C)NCC(O)COC1=CC=CC2=C1CC(O)C(O)C2,-1.01
C-519,atropine;  hyoscyamine,RKUNBYITZUJHSG-UHFFFAOYSA-N,CN1C2CCC1CC(C2)OC(=O)C(CO)C3=CC=CC=C3,-1.91
C-523,sulfacetamide;  n1-(acetyl)sulfanilamide,SKIVFJLNDNKQPD-UHFFFAOYSA-N,CC(=O)N[S](=O)(=O)C1=CC=C(N)C=C1,-1.41
C-530,fluoromethasone;  fluorometholone,FAOZLTXFLGPHNG-UHFFFAOYSA-N,CC1CC2C3CCC(O)(C(C)=O)C3(C)CC(O)C2(F)C4(C)C=CC(=O)C=C14,-4.1
C-531,2-naphthoxyacetic acid,RZCJYMOBWVJQGV-UHFFFAOYSA-N,OC(=O)COC1=CC2=C(C=CC=C2)C=C1,-3.36
C-533,caffeine,RYYVLZVUVIJVGH-UHFFFAOYSA-N,C[N]1C=NC2=C1C(=O)N(C)C(=O)N2C,-0.91
C-534,"oxamniquine;  6-hydroxymethyl-2-isopropylaminomethyl-7-nitro-1,2,3,4-tetrahydroquinoline",XCGYUJZMCCFSRP-UHFFFAOYSA-N,CC(C)NCC1CCC2=C(N1)C=C(C(=C2)CO)[N+]([O-])=O,-2.97
C-537,methylprednisolone,VHRSUDSXCMQTMA-UHFFFAOYSA-N,CC1CC2C3CCC(O)(C(=O)CO)C3(C)CC(O)C2C4(C)C=CC(=O)C=C14,-3.49
C-542,ethinyl  estradiol,BFPYWIDHMRZLRN-UHFFFAOYSA-N,CC12CCC3C(CCC4=CC(=CC=C34)O)C1CCC2(O)C#C,-4.47
C-545,mephobarbital;  1-methylphenobarbital;  5-ethyl-1-methyl-5-phenylbarbituric  acid,ALARQZQTBTVLJV-UHFFFAOYSA-N,CCC1(C(=O)NC(=O)N(C)C1=O)C2=CC=CC=C2,-3.68
C-547,dibenzofuran,TXCDCPKCNAJMEE-UHFFFAOYSA-N,O1C2=C(C=CC=C2)C3=C1C=CC=C3,-4.6
C-552,bupivacaine,LEBVLXFERQHONN-UHFFFAOYSA-N,CCCCN1CCCCC1C(=O)NC2=C(C)C=CC=C2C,-3.22
C-553,scopolamine;  hyoscine,STECJAGHUSJQJN-UHFFFAOYSA-N,CN1C2CC(CC1C3OC23)OC(=O)C(CO)C4=CC=CC=C4,-1.24
C-554,metoclopramide,TTWJBBZEZQICBI-UHFFFAOYSA-N,CCN(CC)CCNC(=O)C1=CC(=C(N)C=C1OC)Cl,-3.18
C-556,melphalan,SGDBTWWWUNNDEQ-UHFFFAOYSA-N,NC(CC1=CC=C(C=C1)N(CCCl)CCCl)C(O)=O,-3.49
C-557,asulam;  n1-(methoxycarbonyl)sulfanilamide;  asulox,VGPYEHKOIGNJKV-UHFFFAOYSA-N,COC(=O)N[S](=O)(=O)C1=CC=C(N)C=C1,-1.76
C-559,deoxycorticosterone  acetate,VPGRYOFKCNULNK-UHFFFAOYSA-N,CC(=O)OCC(=O)C1CCC2C3CCC4=CC(=O)CCC4(C)C3CCC12C,-4.97
C-562,acyclovir;  acv,MKUXAQIIEYXACX-UHFFFAOYSA-N,NC1=NC2=C(N=C[N]2COCCO)C(=O)N1,-2.12
C-564,mestranol,IMSSROKUHAOUJS-UHFFFAOYSA-N,COC1=CC=C2C3CCC4(C)C(CCC4(O)C#C)C3CCC2=C1,-5.49
C-565,cortisone,MFYSYFVPBJMHGN-UHFFFAOYSA-N,CC12CCC(=O)C=C1CCC3C4CCC(O)(C(=O)CO)C4(C)CC(=O)C23,-3.11
C-566,phenazopyridine,QPFYXYFORQJZEC-UHFFFAOYSA-N,NC1=NC(=C(C=C1)N=NC2=CC=CC=C2)N,-4.24
C-571,methyl 2-(4-chlorophenylsulfonyl)acetate;  2-(4-chlorophenylsulfonyl)acetic acid methyl ester,RWMPWXCERLGUAF-UHFFFAOYSA-N,COC(=O)C[S](=O)(=O)C1=CC=C(Cl)C=C1,-2.38
C-576,"picric  acid;  2,4,6-trinitrophenol;",OXNIZHLAWKMVMX-UHFFFAOYSA-N,OC1=C(C=C(C=C1[N+]([O-])=O)[N+]([O-])=O)[N+]([O-])=O,-1.97
C-577,4-aminoantipyrine;  4-aminophenazone;  ampyrone,RLFWWDJHLFCNIJ-UHFFFAOYSA-N,CN1N(C2=CC=CC=C2)C(=O)C(=C1C)N,0.31
C-583,n-phenylanthranilic  acid;  fenamic  acid,ZWJINEZUASEZBH-UHFFFAOYSA-N,OC(=O)C1=CC=CC=C1NC2=CC=CC=C2,-4.96
C-586,triamcinolone,GFNANZIMVAIWHM-UHFFFAOYSA-N,CC12CC(O)C3(F)C(CCC4=CC(=O)C=CC34C)C1CC(O)C2(O)C(=O)CO,-3.68
C-589,"2',3'-dideoxyinosine;  didanosine",BXZVVICBKDXVGW-UHFFFAOYSA-N,OCC1CCC(O1)[N]2C=NC3=C2N=CNC3=O,-0.94
C-591,isocarboxazid;  1-benzyl-2-(5-methyl-3-isoxazolylcarbonyl)hydrazine,XKFPYPQQHFEXRZ-UHFFFAOYSA-N,CC1=CC(=NO1)C(=O)NNCC2=CC=CC=C2,-2.46
C-596,phenazine;  dibenzopyrazine,PCNDJXKNXGMECE-UHFFFAOYSA-N,C1=CC2=C(C=C1)N=C3C=CC=CC3=N2,-3.7
C-600,"thidiazuron; 1-(1,2,3-thiadiazol-5-yl)-3-phenylurea",HFCYZXMHUIHAQI-UHFFFAOYSA-N,O=C(NC1=CN=NS1)NC2=CC=CC=C2,-3.85
C-604,tolbutamide,JLRGJRBPOGGCBT-UHFFFAOYSA-N,CCCCNC(=O)N[S](=O)(=O)C1=CC=C(C)C=C1,-3.17
C-605,cyprodinil;  4-cyclopropyl-6-methyl-2-phenylaminopyrimidine,HAORKNGNJCEJBX-UHFFFAOYSA-N,CC1=NC(=NC(=C1)C2CC2)NC3=CC=CC=C3,-4.05
C-606,methyl 1-(phenylsulfonyl)cyclohexane-1-carboxylate; 1-(phenylsulfonyl)cyclohexanecarboxylic acid methyl ester,QKXWKAIGVBVCPM-UHFFFAOYSA-N,COC(=O)C1(CCCCC1)[S](=O)(=O)C2=CC=CC=C2,-3.85
C-609,hydrocortisone  acetate,ALEXXDVDDISNDU-UHFFFAOYSA-N,CC(=O)OCC(=O)C1(O)CCC2C3CCC4=CC(=O)CCC4(C)C3C(O)CC12C,-4.61
C-610,etomidate;  (r)-(+)-1-(alpha-methylbenzyl)imidazole-5-carboxylic acid ethyl ester,NPUKDXXFDDZOKR-UHFFFAOYSA-N,CCOC(=O)C1=CN=C[N]1C(C)C2=CC=CC=C2,-4.73
C-611,naproxen,CMWTZPSULFXXJA-UHFFFAOYSA-N,COC1=CC=C2C=C(C=CC2=C1)C(C)C(O)=O,-3.29
C-612,danazol,POZRVZJJTULAOH-UHFFFAOYSA-N,CC12CC3=C(ON=C3)C=C1CCC4C2CCC5(C)C4CCC5(O)C#C,-5.51
C-617,ganciclovir,IRSCQMHQWWYFCW-UHFFFAOYSA-N,NC1=NC2=C(N=C[N]2COC(CO)CO)C(=O)N1,-1.77
C-618,"2,3-dimethyl-2,3-dihydro-1h-imidazo[5,1b]quinazolin-9-one; 2,3-dimethylimidazoquinazolone",GYHGUZNRWIIXIG-UHFFFAOYSA-N,CC1N(C)CN2C(=O)C3=C(C=CC=C3)N=C12,0.03
C-619,"2,4,4'-trichlorobiphenyl",BZTYNSQSZHARAZ-UHFFFAOYSA-N,ClC1=CC=C(C=C1)C2=C(Cl)C=C(Cl)C=C2,-6
C-621,isopropyl  2-(4-chlorophenylsulfonyl)acetate; 2-(4-chlorophenylsulfonyl)acetic acid isopropyl ester,DBCUYSCFFFBUJG-UHFFFAOYSA-N,CC(C)OC(=O)C[S](=O)(=O)C1=CC=C(Cl)C=C1,-2.41
C-624,zidovudine,HBOMLICNUCNMMY-UHFFFAOYSA-N,CC1=CN(C2CC(N=[N+]=[N-])C(CO)O2)C(=O)NC1=O,-1.16
C-626,1-(4-methylphenylsulfonyl)cyclobutanecarboxylic acid isopropyl ester,HMGCFJCNDADXNC-UHFFFAOYSA-N,CC(C)OC(=O)C1(CCC1)[S](=O)(=O)C2=CC=C(C)C=C2,-3.34
C-631,prednisolone  acetate,LRJOMUJRLNCICJ-UHFFFAOYSA-N,CC(=O)OCC(=O)C1(O)CCC2C3CCC4=CC(=O)C=CC4(C)C3C(O)CC12C,-4.38
C-633,"5-(1-aziridinyl)-2,4-dinitrobenzamide",WOCXQMCIOTUMJV-UHFFFAOYSA-N,NC(=O)C1=CC(=C(C=C1[N+]([O-])=O)[N+]([O-])=O)N2CC2,-2.3
C-638,methyl 2-(4-bromobenzenesulfonyl)acetate;  2-(4-bromobenzenesulfonyl)acetic acid methyl ester,CNEVNTZDQZVZGP-UHFFFAOYSA-N,COC(=O)C[S](=O)(=O)C1=CC=C(Br)C=C1,-2.48
C-641,"2,4,6-trichlorobiphenyl",MTLMVEWEYZFYTH-UHFFFAOYSA-N,ClC1=CC(=C(C(=C1)Cl)C2=CC=CC=C2)Cl,-6.06
C-643,"4-hydroxy-5,6-dihydro-4h-2-sulfamoylthieno[2,3-b]thiopyran",QUBSMEXIPLOOMC-UHFFFAOYSA-N,N[S](=O)(=O)C1=CC2=C(SCCC2O)S1,-2.59
C-644,1-(4-methylphenylsulfonyl)cyclohexanecarboxylic acid methyl ester,XBQBUJRJLAOQHD-UHFFFAOYSA-N,COC(=O)C1(CCCCC1)[S](=O)(=O)C2=CC=C(C)C=C2,-4.61
C-645,methazolamide,FLOSMHQXBMRNHR-UHFFFAOYSA-N,CN1N=C(SC1=NC(C)=O)[S](N)(=O)=O,-1.92
C-648,"2,3,6-trichlorobiphenyl",LVROLHVSYNLFBE-UHFFFAOYSA-N,ClC1=CC=C(Cl)C(=C1Cl)C2=CC=CC=C2,-6.29
C-653,nitrofurantoin,NXFQHRVNIOXGAQ-YCRREMRBSA-N,[O-][N+](=O)C1=CC=C(O1)\C=N\N2CC(=O)NC2=O,-3.38
C-659,parathion-methyl;  methylparathion,RLBIQVVOMOPOHC-UHFFFAOYSA-N,CO[P](=S)(OC)OC1=CC=C(C=C1)[N+]([O-])=O,-3.68
C-661,pelrinone,NZXHFDXOCVIYLO-UHFFFAOYSA-N,CC1=NC(=O)C(=C(NCC2=CN=CC=C2)N1)C#N,-2.35
C-662,ethofumesate,IRCMYGHHKLLGHV-UHFFFAOYSA-N,CCOC1OC2=CC=C(O[S](C)(=O)=O)C=C2C1(C)C,-3.42
C-665,adenosine,OIRDTQYFTABQOQ-UHFFFAOYSA-N,NC1=NC=NC2=C1N=C[N]2C3OC(CO)C(O)C3O,-1.73
C-666,flurbiprofen,SYTBZMRGLBWNTM-UHFFFAOYSA-N,CC(C(O)=O)C1=CC=C(C(=C1)F)C2=CC=CC=C2,-4.29
C-670,1-(4-methylphenylsulfonyl)cyclopentanecarboxylic acid isopropyl ester,ZJFXBQVTEYWQHW-UHFFFAOYSA-N,CC(C)OC(=O)C1(CCCC1)[S](=O)(=O)C2=CC=C(C)C=C2,-3.91
C-674,"3-aziridin-1-yl-4,6-dinitro-(n-methyl)benzamide",KNLCLQCILLJWHK-UHFFFAOYSA-N,CNC(=O)C1=CC(=C(C=C1[N+]([O-])=O)[N+]([O-])=O)N2CC2,-2.85
C-676,triamcinolone  acetonide,YNDXUCZADRHECN-UHFFFAOYSA-N,CC1(C)OC2CC3C4CCC5=CC(=O)C=CC5(C)C4(F)C(O)CC3(C)C2(O1)C(=O)CO,-4.31
C-682,albendazole,HXHWSAZORRCQMX-UHFFFAOYSA-N,CCCSC1=CC2=C([NH]C(=N2)NC(=O)OC)C=C1,-4.22
C-684,"3-methyl-2-propyl-2,3-dihydro-1h-imidazo[5,1b]quinazolin-9-one; 2-propyl-3-methylimidazoquinazolone",LTMRJPIOLKBUKZ-UHFFFAOYSA-N,CCCN1CN2C(=O)C3=C(C=CC=C3)N=C2C1C,-2.67
C-685,myclobutanil,HZJKXKUJVSEEFU-UHFFFAOYSA-N,CCCCC(C[N]1C=NC=N1)(C#N)C2=CC=C(Cl)C=C2,-3.31
C-687,hydromorphone;  dihydromorphinone,WVLOADHCBXTIJK-UHFFFAOYSA-N,CN1CCC23C4CCC(=O)C2OC5=C(O)C=CC(=C35)CC14,-2.1
C-688,"5,6-dihydro-2-sulfamoylthieno[2,3-b]thiopyran-4-one",WKLCYOHFTPREOW-UHFFFAOYSA-N,N[S](=O)(=O)C1=CC2=C(SCCC2=O)S1,-3.55
C-689,"5,6-dihydro-2-sulfamoylthieno[3,2-b]thiopyran-7-one",AIVXUNRQBRKFJO-UHFFFAOYSA-N,N[S](=O)(=O)C1=CC2=C(S1)C(=O)CCS2,-3.49
C-690,"7-hydroxy-6,7-dihydro-5h-2-sulfamoylthieno[3,2-b]thiopyran",UGQVTTBSGZLNIL-UHFFFAOYSA-N,N[S](=O)(=O)C1=CC2=C(S1)C(O)CCS2,-2.25
C-692,1-(4-methylphenylsulfonyl)cyclohexanecarboxylic acid isopropyl ester,IXSGKTPWQQPRAU-UHFFFAOYSA-N,CC(C)OC(=O)C1(CCCCC1)[S](=O)(=O)C2=CC=C(C)C=C2,-4.62
C-695,2-amino-1-naphthalenesulfonic acid; tobias acid,GWIAAIUASRVOIA-UHFFFAOYSA-N,NC1=C(C2=CC=CC=C2C=C1)[S](O)(=O)=O,-1.7
C-696,tolmetin;  2-[1-methyl-2-(4-methylbenzoyl)pyrrol-5-yl]acetic  acid,UPSPUYADGBWSHF-UHFFFAOYSA-N,C[N]1C(=CC=C1C(=O)C2=CC=C(C)C=C2)CC(O)=O,-4.09
C-700,"3-(1-aziridinyl)-4,6-dinitro-(n,n-dimethyl)benzamide",JORNJVDPZHKPNJ-UHFFFAOYSA-N,CN(C)C(=O)C1=CC(=C(C=C1[N+]([O-])=O)[N+]([O-])=O)N2CC2,-2.48
C-702,"3,4,4',5-tetrachlorobiphenyl",BHWVLZJTVIYLIV-UHFFFAOYSA-N,ClC1=CC=C(C=C1)C2=CC(=C(Cl)C(=C2)Cl)Cl,-7.96
C-708,"diflunisal;  1-carboxy-2-hydroxy-2',4'-difluorobiphenyl",HUPFGZXOMWLGNK-UHFFFAOYSA-N,OC(=O)C1=CC(=CC=C1O)C2=C(F)C=C(F)C=C2,-4.61
C-710,dexamethasone-21-acetate;  decadronal,AKUJBENLRBOFTD-UHFFFAOYSA-N,CC1CC2C3CCC4=CC(=O)C=CC4(C)C3(F)C(O)CC2(C)C1(O)C(=O)COC(C)=O,-4.9
C-715,"2,2',4,4'-tetrachlorobiphenyl",QORAVNMWUNPXAO-UHFFFAOYSA-N,ClC1=CC(=C(C=C1)C2=CC=C(Cl)C=C2Cl)Cl,-6.51
C-718,"2,2',4,5'-tetrachlorobiphenyl",ZWPVHELAQPIZHO-UHFFFAOYSA-N,ClC1=CC(=C(C=C1)C2=CC(=CC=C2Cl)Cl)Cl,-7.26
C-721,"2,2',5,5'-tetrachlorobiphenyl",HCWZEPKLWVAEOV-UHFFFAOYSA-N,ClC1=CC(=C(Cl)C=C1)C2=CC(=CC=C2Cl)Cl,-7.04
C-724,"2,3,4,5-tetrachlorobiphenyl",HLQDGCWIOSOMDP-UHFFFAOYSA-N,ClC1=CC(=C(Cl)C(=C1Cl)Cl)C2=CC=CC=C2,-7.16
C-727,maprotiline,QSLMDECMDJKHMQ-UHFFFAOYSA-N,CNCCCC12CCC(C3=C1C=CC=C3)C4=C2C=CC=C4,-4.69
C-731,entacapone,JRURYQJSLYLRLN-YHYXMXQVSA-N,CCN(CC)C(=O)\C(=C/C1=CC(=C(O)C(=C1)[N+]([O-])=O)O)C#N,-4.26
C-733,"4,4'-ddd; 2,2-bis(4-chlorophenyl)-1,1-dichloroethane",AHJKRLASYNVKDZ-UHFFFAOYSA-N,ClC(Cl)C(C1=CC=C(Cl)C=C1)C2=CC=C(Cl)C=C2,-7.2
C-735,"3-aziridin-1-yl-2,4-dinitro-(n-cyclopropyl)benzamide",JKLHHVBMBLUNBW-UHFFFAOYSA-N,[O-][N+](=O)C1=C(C=C(C(=O)NC2CC2)C(=C1)[N+]([O-])=O)N3CC3,-3.39
C-736,diazoxide,GDLBFKVLRPITMI-UHFFFAOYSA-N,CC1=NC2=C(C=C(Cl)C=C2)[S](=O)(=O)N1,-3.36
C-745,pentabromophenol,SVHOVVJFOWGYJO-UHFFFAOYSA-N,OC1=C(Br)C(=C(Br)C(=C1Br)Br)Br,-6.6
C-747,5'-pivaloyl-idoxuridine; 5'-pivaloyl-5-iodo-2'-deoxyuridine; 5'-pivaloyl-idu,LGQAEHYXRMFPHS-UHFFFAOYSA-N,CC(C)(C)C(=O)OCC1OC(CC1O)N2C=C(I)C(=O)NC2=O,-3.36
C-748,thiamphenicol,OTVAEFIXJLOWRX-UHFFFAOYSA-N,C[S](=O)(=O)C1=CC=C(C=C1)C(O)C(CO)NC(=O)C(Cl)Cl,-2.15
C-749,suprofen;  2-[4-(2-thienylcarbonyl)phenyl]propanoic acid,MDKGKXOCJGEUJW-UHFFFAOYSA-N,CC(C(O)=O)C1=CC=C(C=C1)C(=O)C2=CC=CS2,-2
C-751,medazepam,YLCXGBZIZBEVPZ-UHFFFAOYSA-N,CN1CCN=C(C2=CC=CC=C2)C3=C1C=CC(=C3)Cl,-4.43
C-753,carbamazepine,FFGPTBGBLSHEPO-UHFFFAOYSA-N,NC(=O)N1C2=C(C=CC=C2)C=CC3=C1C=CC=C3,-3.29
C-757,flufenamic  acid,LPEPZBJOKDYZAD-UHFFFAOYSA-N,OC(=O)C1=CC=CC=C1NC2=CC(=CC=C2)C(F)(F)F,-4.4
C-758,trifluralin,ZSDSQXJSNMTJDA-UHFFFAOYSA-N,CCCN(CCC)C1=C(C=C(C=C1[N+]([O-])=O)C(F)(F)F)[N+]([O-])=O,-6.05
C-762,1-(4-chlorophenylsulfonyl)cycloheptanecarboxylic acid isopropyl ester,CNCBPCXAUZPIGA-UHFFFAOYSA-N,CC(C)OC(=O)C1(CCCCCC1)[S](=O)(=O)C2=CC=C(Cl)C=C2,-5.52
C-763,trimipramine,ZSCDBOWYZJWBIY-UHFFFAOYSA-N,CC(CN(C)C)CN1C2=C(CCC3=C1C=CC=C3)C=CC=C2,-4.79
C-764,"4-hydroxy-7-oxo-4,5,6,7-tetrahydro-2-sulfamoylthieno[2,3-b]thiopyran",DWEPFAMAQPVFBH-UHFFFAOYSA-N,N[S](=O)(=O)C1=CC2=C(S1)[S](=O)CCC2O,-1.35
C-766,5'-butanoyl-idoxuridine; 5'-butanoyl-5-iodo-2'-deoxyuridine; 5'-butanoyl-idu,KDBSFQVOZZGNJK-UHFFFAOYSA-N,CCCC(=O)OCC1OC(CC1O)N2C=C(I)C(=O)NC2=O,-2.84
C-770,5'-isobutanoyl-idoxuridine; 5'-isobutanoyl-5-iodo-2'-deoxyuridine; 5'-isobutanoyl-idu,QUQCJNNIGSBSRQ-UHFFFAOYSA-N,CC(C)C(=O)OCC1OC(CC1O)N2C=C(I)C(=O)NC2=O,-2.76
C-771,fentanyl,PJMPHNIQZUBGLI-UHFFFAOYSA-N,CCC(=O)N(C1CCN(CC1)CCC2=CC=CC=C2)C3=CC=CC=C3,-3.82
C-772,testosterone  benzoate,RZJSCADWIWNGKI-UHFFFAOYSA-N,CC12CCC3C(CCC4=CC(=O)CCC34C)C1CCC2OC(=O)C5=CC=CC=C5,-4.48
C-776,n-(4-chlorophenyl)benzenesulfonamide,ANRCRHLXUCJAKV-UHFFFAOYSA-N,ClC1=CC=C(N[S](=O)(=O)C2=CC=CC=C2)C=C1,-4.03
C-777,methyl 4-nitrophenylsulfonylcyclopropylcarboxylate; 1-(4-nitrophenylsulfonyl)cyclopropane-2-carboxylic acid methyl ester,FELSOTPKAIENCI-UHFFFAOYSA-N,COC(=O)C1CC1[S](=O)(=O)C2=CC=C(C=C2)[N+]([O-])=O,-3.38
C-779,testosterone  phenylpropionate,HHSXYDOROIURIP-UHFFFAOYSA-N,CC12CCC3C(CCC4=CC(=O)CCC34C)C1CCC2OC(=O)CCC5=CC=CC=C5,-5.27
C-780,fluoranthene,GVEPBJHOBDJJJI-UHFFFAOYSA-N,C1=CC2=C(C=C1)C3=C4C(=CC=C3)C=CC=C24,-5.93
C-783,benomyl,RIOXQFHNBCKOKP-UHFFFAOYSA-N,CCCCNC(=O)[N]1C(=NC2=C1C=CC=C2)NC(=O)OC,-4.86
C-786,testosterone  phenylbutyrate,KPKRHHWUOMEERQ-UHFFFAOYSA-N,CC12CCC3C(CCC4=CC(=O)CCC34C)C1CCC2OC(=O)CCCC5=CC=CC=C5,-5.43
C-787,5'-pentanoyl-idoxuridine; 5'-pentanoyl-5-iodo-2'-deoxyuridine; 5'-pentanoyl-idu,IXRSCWSJPFKHLV-UHFFFAOYSA-N,CCCCC(=O)OCC1OC(CC1O)N2C=C(I)C(=O)NC2=O,-3.4
C-788,"3,3',4,4',5-pentachlorobiphenyl",REHONNLQRWTIFF-UHFFFAOYSA-N,ClC1=CC=C(C=C1Cl)C2=CC(=C(Cl)C(=C2)Cl)Cl,-8.39
C-790,n-(2-chlorophenyl)benzenesulfonamide,KMSWCQQQRKBBAH-UHFFFAOYSA-N,ClC1=CC=CC=C1N[S](=O)(=O)C2=CC=CC=C2,-4.32
C-791,sulpiride,BGRJTUBHPOOWDU-UHFFFAOYSA-N,CCN1CCCC1CNC(=O)C2=C(OC)C=CC(=C2)[S](N)(=O)=O,-2.88
C-794,"2',3,4,4',5-pentachlorobiphenyl",YAHNWSSFXMVPOU-UHFFFAOYSA-N,ClC1=CC(=C(C=C1)C2=CC(=C(Cl)C(=C2)Cl)Cl)Cl,-8.55
C-796,testosterone  phenylacetate,WIJSFCWRMNIREB-UHFFFAOYSA-N,CC12CCC3C(CCC4=CC(=O)CCC34C)C1CCC2OC(=O)CC5=CC=CC=C5,-4.66
C-798,fenclofenac,IDKAXRLETRCXKS-UHFFFAOYSA-N,OC(=O)CC1=CC=CC=C1OC2=C(Cl)C=C(Cl)C=C2,-4.86
C-805,2-chloro-3-phenylsulfonamidopyridine,YWIHZYXECGNFTQ-UHFFFAOYSA-N,ClC1=NC=CC=C1N[S](=O)(=O)C2=CC=CC=C2,-3.76
C-807,quinine,LOUPRKONTZGTKE-UHFFFAOYSA-N,COC1=CC=C2N=CC=C(C(O)C3CC4CCN3CC4C=C)C2=C1,-2.79
C-808,3-chloro-2-phenylsulfonamidopyridine,MIPCZELJNQPXAK-UHFFFAOYSA-N,ClC1=CC=CN=C1N[S](=O)(=O)C2=CC=CC=C2,-3.17