ID,Name,InChIKey,SMILES,Solubility
B-1656,4-(4-nitrophenylazo)phenol,ISHCVXKNSGUMPL-UHFFFAOYSA-N,[O-][N+](=O)c1ccc(NN=C2C=CC(=O)C=C2)cc1,-4.796
B-1657,2-pyridinecarboxamide,IBBMAWULFFBRKK-UHFFFAOYSA-N,NC(=O)c1ccccn1,0.1685
B-1658,heptadecyl alcohol,GOQYKNQRPGWPLP-UHFFFAOYSA-N,CCCCCCCCCCCCCCCCCO,-7.506
B-1659,"2,6-dimethyl-n-nitrosomorpholine",DPYMAXOKJUBANR-UHFFFAOYSA-N,CC1CN(CC(C)O1)N=O,-0.0655
B-1661,"pyridine, 2,3,6-trimethyl-",UTBIMNXEDGNJFE-UHFFFAOYSA-N,Cc1ccc(C)c(C)n1,-0.5893
B-1663,5-indanol,PEHSSTUGJUBZBI-UHFFFAOYSA-N,Oc1ccc2CCCc2c1,-1.3285
B-1664,"1,4-dichloro-2-butene(cis)",FQDIANVAWVHZIR-UPHRSURJSA-N,ClC\C=C/CCl,-2.3333
B-1665,"piperidine, 3-ethyl-,",QBBKKFZGCDJDQK-SSDOTTSWSA-N,CC[C@@H]1CCCCN1,-0.3463
B-1667,"cyclohexanone, 2-(1-cyclohexen-1-yl)-",GVNVAWHJIKLAGL-UHFFFAOYSA-N,O=C1CCCCC1C2=CCCCC2,-2.774
B-1668,2-(acetyloxy)-4-bromo-benzoic acid,VRJBEVQGJOSGOX-UHFFFAOYSA-N,CC(=O)Oc1ccc(Br)cc1C(O)=O,-2.5895
B-1671,"n,n-diethyl succinamic acid",XILORGWKMLOGKF-UHFFFAOYSA-N,CCN(CC)C(=O)CCC(O)=O,-0.7937
B-1673,"urea, (4-methoxyphenyl)-",PGUKYDVWVXRPKK-UHFFFAOYSA-N,COc1ccc(NC(N)=O)cc1,-1.5917
B-1674,4-methoxy-2-nitrophenol,YBUGOACXDPDUIR-UHFFFAOYSA-N,COc1ccc(O)c(c1)[N+]([O-])=O,-2.8409
B-1675,1-propoxy-2-propanol,FENFUOGYJVOCRY-UHFFFAOYSA-N,CCCOCC(C)O,0.9275
B-1676,3-penten-2-ol,GJYMQFMQRRNLCY-ONEGZZNKSA-N,C/C=C/C(C)O,0.0152
B-1677,2-methyl-4-chlorophenol,RHPUJHQBPORFGV-UHFFFAOYSA-N,Cc1cc(Cl)ccc1O,-1.552
B-1678,"4,6-dichloro-o-cresol",WJQZZLQMLJPKQH-UHFFFAOYSA-N,Cc1cc(Cl)cc(Cl)c1O,-2.0439
B-1679,"benzamide, 3-(aminosulfonyl)-",AJVBPNRMKNARPG-UHFFFAOYSA-N,NC(=O)c1cccc(c1)[S](N)(=O)=O,-2.1554
B-1680,"2-propenoic acid, 3,3-dibromo-",VWWPGQPTCCQNIO-UHFFFAOYSA-N,OC(=O)C=C(Br)Br,-0.8358
B-1682,"urea, n,n''-ethylidenebis-",MIWFLWHJKFXSDI-UHFFFAOYSA-N,CC(NC(N)=O)NC(N)=O,-0.5916
B-1683,"hydrazinecarboxamide, 2-cyclohexylidene-",KZDDDHJBINUIKQ-UHFFFAOYSA-N,NC(=O)NN=C1CCCCC1,-1.4127
B-1684,"2-naphthalenebutanoic acid, .gamma.-oxo-",GZKLCZIMSAHQDR-UHFFFAOYSA-N,OC(=O)CCC(=O)c1ccc2ccccc2c1,-3.8533
B-1685,daminozide,NOQGZXFMHARMLW-UHFFFAOYSA-N,CN(C)NC(=O)CCC(O)=O,-0.2046
B-1686,pentrinitrol,BRBAEHHXGZRCBK-UHFFFAOYSA-N,OCC(CO[N+]([O-])=O)(CO[N+]([O-])=O)CO[N+]([O-])=O,-1.585
B-1687,atratone,PXWUKZGIHQRDHL-UHFFFAOYSA-N,CCNc1nc(NC(C)C)nc(OC)n1,-2.0696
B-1688,"2,4-pentadienenitrile",STSRVFAXSLNLLI-ARJAWSKDSA-N,C=C\C=C/C#N,-0.7221
B-1691,malaoxon,WSORODGWGUUOBO-UHFFFAOYSA-N,CCOC(=O)CC(S[P](=O)(OC)OC)C(=O)OCC,-1.6223
B-1692,1-heptanethiol,VPIAKHNXCOTPAY-UHFFFAOYSA-N,CCCCCCCS,-4.1549
B-1693,aldicarb sulfoxide,BXPMAGSOWXBZHS-WEVVVXLNSA-N,CNC(=O)O\N=C\C(C)(C)[S](C)=O,-0.8673
B-1694,aldicarb sulfone,YRRKLBAKDXSTNC-WEVVVXLNSA-N,CNC(=O)O\N=C\C(C)(C)[S](C)(=O)=O,-1.3469
B-1695,"1,2-dichloro-1,1-difluoroethane",SKDFWEPBABSFMG-UHFFFAOYSA-N,FC(F)(Cl)CCl,-2.2007
B-1696,2-undecanol,XMUJIPOFTAHSOK-UHFFFAOYSA-N,CCCCCCCCCC(C)O,-2.9418
B-1697,"1-heptanol, 6-methyl-",BWDBEAQIHAEVLV-UHFFFAOYSA-N,CC(C)CCCCCO,-2.3038
B-1698,"1,10-phenanthroline, 3,4,7,8-tetramethyl-",NPAXPTHCUCUHPT-UHFFFAOYSA-N,Cc1cnc2c(ccc3c(C)c(C)cnc23)c1C,-5.1939
B-1699,doxepin,ODQWQRRAPPTVAG-GZTJUZNOSA-N,CN(C)CC\C=C1/c2ccccc2COc3ccccc13,-3.9469
B-1700,ethylcyclohexane,IIEWJVIFRVWJOD-UHFFFAOYSA-N,CCC1CCCCC1,-4.2507
B-1701,alpha-pinene oxide,NQFUSWIGRKFAHK-UHFFFAOYSA-N,CC1(C)C2CC3OC3(C)C1C2,-2.5937
B-1702,"1(3h)isobenzofuranone-3,3-dimethyl",YFBZUWUJSCLVST-UHFFFAOYSA-N,CC1(C)OC(=O)c2ccccc12,-1.8684
B-1703,p-phenylazophenol,JTSBGMZPPPULTA-UHFFFAOYSA-N,O=C1C=CC(C=C1)=NNc2ccccc2,-3.3429
B-1705,bromoxynil,UPMXNNIRAGDFEH-UHFFFAOYSA-N,Oc1c(Br)cc(cc1Br)C#N,-3.3284
B-1706,bromoxynil octanoate,DQKWXTIYGWPGOO-UHFFFAOYSA-N,CCCCCCCC(=O)Oc1c(Br)cc(cc1Br)C#N,-6.7023
B-1707,"2-phenyl-4,5-dichloro-3-pyridazinone",VKWCOHVAHQOJGU-UHFFFAOYSA-N,ClC1=C(Cl)C(=O)N(N=C1)c2ccccc2,-3.3822
B-1708,chloridazon,WYKYKTKDBLFHCY-UHFFFAOYSA-N,NC1=C(Cl)C(=O)N(N=C1)c2ccccc2,-2.7436
B-1709,"3,6-dichloropicolinic acid",HUBANNPOLNYSAD-UHFFFAOYSA-N,OC(=O)c1nc(Cl)ccc1Cl,-1.3884
B-1710,6-methylchrysene,ASVDRLYVNFOSCI-UHFFFAOYSA-N,Cc1cc2c3ccccc3ccc2c4ccccc14,-6.5715
B-1711,isopropyl nitrate,GAPFWGOSHOCNBM-UHFFFAOYSA-N,CC(C)O[N+]([O-])=O,-1.4593
B-1712,"1,1-dichlorofluoroethane",FRCHKSNAZZFGCA-UHFFFAOYSA-N,CC(F)(Cl)Cl,-2.4448
B-1713,"10h-phenothiazine, 2-chloro-7-methoxy-",VGCKEWCZFDSELD-UHFFFAOYSA-N,COc1ccc2Nc3cc(Cl)ccc3Sc2c1,-4.9787
B-1714,dehydroabietic acid,NFWKVWVWBFBAOV-MISYRCLQSA-N,CC(C)c1ccc2c(CC[C@H]3[C@@](C)(CCC[C@]23C)C(O)=O)c1,-4.6582
B-1715,"[1,2,4,5]tetrazino[1,2-a][1,2,4,5]tetrazine, oct",RRIGVQQUVAETIG-UHFFFAOYSA-N,C1NNCN2CNNCN12,-0.0128
B-1716,nicotinanilide,NYQXIOZBHWFCBU-UHFFFAOYSA-N,O=C(Nc1ccccc1)c2cccnc2,-3.093
B-1717,"1,2,3-benzothiadiazol-5-amine",NTOZWWRQYAJWGC-UHFFFAOYSA-N,Nc1ccc2snnc2c1,-1.3045
B-1718,"thiocyanic acid, ammonium salt",SOIFLUNRINLCBN-UHFFFAOYSA-N,[NH4+].[S-]C#N,0.9178
B-1719,"benzenemethanol, 2,4-dichloro-",DBHODFSFBXJZNY-UHFFFAOYSA-N,OCc1ccc(Cl)cc1Cl,-2.248
B-1720,"methane, chloronitro-",CGKPGVZMSKVVOF-UHFFFAOYSA-N,[O-][N+](=O)CCl,-0.281
B-1721,"propanal, 2-(hydroxyimino)-, oxime",YYWZDZMCXPSGDF-NSCUHMNNSA-N,C\C(NO)=C/N=O,-0.3462
B-1722,"3,4-dichlorobenzyl alcohol",FVJIUQSKXOYFKG-UHFFFAOYSA-N,OCc1ccc(Cl)c(Cl)c1,-2.0439
B-1723,dibutyl phosphite,OSPSWZSRKYCQPF-UHFFFAOYSA-N,CCCCO[P+](=O)OCCCC,-1.4249
B-1725,"1,4-dichloronaphthalene",JDPKCYMVSKDOGS-UHFFFAOYSA-N,Clc1ccc(Cl)c2ccccc12,-5.3576
B-1726,"2-[(6-chloro-3-pyridazinyl)thio]-n,n-diethylacet",SSLKKMZJCJBOML-UHFFFAOYSA-N,CCN(CC)C(=O)CSc1ccc(Cl)nn1,-1.7156
B-1727,nitrofen,XITQUSLLOSKDTB-UHFFFAOYSA-N,[O-][N+](=O)c1ccc(Oc2ccc(Cl)cc2Cl)cc1,-5.4535
B-1728,chlornitrofen,XQNAUQUKWRBODG-UHFFFAOYSA-N,[O-][N+](=O)c1ccc(Oc2c(Cl)cc(Cl)cc2Cl)cc1,-5.6201
B-1729,"4-heptanol, 3-methyl-",JMRDKKYZLXDPLN-UHFFFAOYSA-N,CCCC(O)C(C)CC,-1.8406
B-1730,fluspirilene,QOYHHIBFXOOADH-UHFFFAOYSA-N,Fc1ccc(cc1)C(CCCN2CCC3(CC2)N(CNC3=O)c4ccccc4)c5ccc(F)cc5,-4.6772
B-1731,undecanedioic acid,LWBHHRRTOZQPDM-UHFFFAOYSA-N,OC(=O)CCCCCCCCCC(O)=O,-1.6274
B-1732,dimethyl tetrachloroterephthalate,NPOJQCVWMSKXDN-UHFFFAOYSA-N,COC(=O)c1c(Cl)c(Cl)c(c(Cl)c1Cl)C(=O)OC,-5.8221
B-1734,tritac,LJWIIRATRWPHBA-UHFFFAOYSA-N,CC(O)COCc1c(Cl)ccc(Cl)c1Cl,-3.5673
B-1735,ketamine,VCMGMSHEPQENPE-UHFFFAOYSA-N,[H+].[Cl-].CNC1(CCCCC1=O)c2ccccc2Cl,-0.137
B-1736,"phenol, 4-chloro-3,5-dimethyl-2-(phenylmethyl)-",DTWBOPJMZJGHEW-UHFFFAOYSA-N,Cc1cc(O)c(Cc2ccccc2)c(C)c1Cl,-4.3009
B-1737,"ethanediamide, n,n'-bis(2-hydroxyethyl)-",FPQJEXTVQZHURJ-UHFFFAOYSA-N,OCCNC(=O)C(=O)NCCO,-0.1124
B-1738,psicofuranine,BNZYRKVSCLSXSJ-IOSLPCCCSA-N,Nc1ncnc2n(cnc12)[C@]3(CO)O[C@H](CO)[C@@H](O)[C@H]3O,-1.5701
B-1739,o-methylphenoxyacetic acid,QJVXBRUGKLCUMY-UHFFFAOYSA-N,Cc1ccccc1OCC(O)=O,-2.4424
B-1740,o-nitrophenoxyacetic acid,TYHHDWAHJRRYCU-UHFFFAOYSA-N,OC(=O)COc1ccccc1[N+]([O-])=O,-2.016
B-1741,di-tert-butylsulfone,SPJQDMKTFSPPLO-UHFFFAOYSA-N,CC(C)(C)[S](=O)(=O)C(C)(C)C,-1.2177
B-1742,perchloropropylene,VFDYKPARTDCDCU-UHFFFAOYSA-N,ClC(Cl)=C(Cl)C(Cl)(Cl)Cl,-4.1651
B-1743,"2-furancarboxaldehyde, 5-bromo-",WJTFHWXMITZNHS-UHFFFAOYSA-N,Brc1oc(C=O)cc1,-1.544
B-1744,ipazine,OWYWGLHRNBIFJP-UHFFFAOYSA-N,CCN(CC)c1nc(Cl)nc(NC(C)C)n1,-3.7849
B-1745,"2-furancarboxylic acid, 5-methyl-",OVOCLWJUABOAPL-UHFFFAOYSA-N,Cc1oc(cc1)C(O)=O,-0.8243
B-1746,"2-furancarboxaldehyde, 5-(methoxymethyl)-",ASHVULSQMDWKFO-UHFFFAOYSA-N,COCc1oc(C=O)cc1,-0.4992
B-1748,picloram,NQQVFXUMIDALNH-UHFFFAOYSA-N,Nc1c(Cl)c(Cl)nc(C(O)=O)c1Cl,-2.7494
B-1749,dipropalin,UDVZOMAEGATTSE-UHFFFAOYSA-N,CCCN(CCC)c1c(cc(C)cc1[N+]([O-])=O)[N+]([O-])=O,-2.9663
B-1750,"2,6-di-t-butyl-p-tolyl methylcarbamate",PNRAZZZISDRWMV-UHFFFAOYSA-N,CNC(=O)Oc1c(cc(C)cc1C(C)(C)C)C(C)(C)C,-4.598
B-1752,10h-phenothiazin-3-ol,JAMWHXUWMDVHJF-UHFFFAOYSA-N,Oc1ccc2Nc3ccccc3Sc2c1,-2.5748
B-1753,"2,4-d, methyl ester",HWIGZMADSFQMOI-UHFFFAOYSA-N,COC(=O)COc1ccc(Cl)cc1Cl,-2.9596
B-1754,"2,4,5-t, ethyl ester",LVNNFHCEDQSWSC-UHFFFAOYSA-N,CCOC(=O)COc1cc(Cl)c(Cl)cc1Cl,-4.8493
B-1755,"2,4-d, octyl ester",JWEDKKSQRXHXJD-UHFFFAOYSA-N,CCCCCCCCOC(=O)COc1ccc(Cl)cc1Cl,-7.0217
B-1756,"2,4-d, propyl ester",URELEWKDONECLX-UHFFFAOYSA-N,CCCOC(=O)COc1ccc(Cl)cc1Cl,-4.2502
B-1757,p-meo-b-phenylpropionic acid,FIUFLISGGHNPSM-UHFFFAOYSA-N,COc1ccc(CCC(O)=O)cc1,-2.2144
B-1758,"2,4-d, butoxyethyl ester",ZMWGIGHRZQTQRE-UHFFFAOYSA-N,CCCCOCCOC(=O)COc1ccc(Cl)cc1Cl,-4.4276
B-1761,benzthiazuron,DTCJYIIKPVRVDD-UHFFFAOYSA-N,CNC(=O)Nc1sc2ccccc2n1,-4.2373
B-1762,chlorotrinitromethane,GNZCDDDPGSFZFG-UHFFFAOYSA-N,[O-][N+](=O)C(Cl)([N+]([O-])=O)[N+]([O-])=O,-1.9259
B-1763,"1,2-cyclohexanediol, 1-methyl-4-(1-methylethenyl",WKZWTZTZWGWEGE-UHFFFAOYSA-N,CC(=C)C1CCC(C)(O)C(O)C1,-0.2311
B-1764,propane-1-thiosulfinic acid s-propyl ester,XPRZAEWSYWTDSQ-UHFFFAOYSA-N,CCCS[S](=O)CCC,-0.9199
B-1765,"1,3-benzenedicarboxylic acid, 2-methoxy-",ZRWAPLTWCQQSAN-UHFFFAOYSA-N,COc1c(cccc1C(O)=O)C(O)=O,-2.2926
B-1766,"propanoic acid, 4-nitrophenyl ester",DCQWRDUXRZSWHI-UHFFFAOYSA-N,CCC(=O)Oc1ccc(cc1)[N+]([O-])=O,-3.8925
B-1767,"pentanoic acid, 4-nitrophenyl ester",RJQXEHRFVKJLJO-UHFFFAOYSA-N,CCCCC(=O)Oc1ccc(cc1)[N+]([O-])=O,-4.3945
B-1769,"l-valine, n-glycyl-",STKYPAFSDFAEPH-UHFFFAOYSA-N,CC(C)C(NC(=O)CN)C(O)=O,0.4579
B-1770,"hexanediamide, n,n'-bis(2-hydroxyethyl)-",OSGRUAAPIRXZTJ-UHFFFAOYSA-N,OCCNC(=O)CCCCC(=O)NCCO,0.4121
B-1771,"3,4-dichlorobenzyl methylcarbamate",DSVOTYIOPGIVPP-UHFFFAOYSA-N,CNC(=O)OCc1ccc(Cl)c(Cl)c1,-3.1389
B-1772,chlorbufam,ULBXWWGWDPVHAO-UHFFFAOYSA-N,CC(OC(=O)Nc1cccc(Cl)c1)C#C,-2.6172
B-1773,p-bromophenylurea,PFQUUCXMPUNRLA-UHFFFAOYSA-N,NC(=O)Nc1ccc(Br)cc1,-1.6336
B-1774,1-bromo-2-ethylbenzene,HVRUGFJYCAFAAN-UHFFFAOYSA-N,CCc1ccccc1Br,-3.6702
B-1775,chloroxuron,IVUXTESCPZUGJC-UHFFFAOYSA-N,CN(C)C(=O)Nc1ccc(Oc2ccc(Cl)cc2)cc1,-4.8953
B-1776,siduron,JXVIIQLNUPXOII-UHFFFAOYSA-N,CC1CCCCC1NC(=O)Nc2ccccc2,-4.1108
B-1777,"benzene, 1,2-dichloro-3-methoxy-",HFEASCCDHUVYKU-UHFFFAOYSA-N,COc1cccc(Cl)c1Cl,-3.309
B-1778,"benzene, 1,3-dichloro-2-methoxy-",KZLMCDNAVVJKPX-UHFFFAOYSA-N,COc1c(Cl)cccc1Cl,-3.1019
B-1779,"2-propenamide, 3-(2-nitrophenyl)-",RASLWNGTMHFPIQ-UHFFFAOYSA-N,NC(=O)C=Cc1ccccc1[N+]([O-])=O,-1.2837
B-1780,"1h-purine, 6-methyl-",SYMHUEFSSMBHJA-UHFFFAOYSA-N,Cc1ncnc2nc[nH]c12,0.1735
B-1781,butylate,BMTAFVWTTFSTOG-UHFFFAOYSA-N,CCSC(=O)N(CC(C)C)CC(C)C,-3.684
B-1782,"4-imidazolidinone, 3-phenyl-2-thioxo-",ZZRIQDWDJVLELF-UHFFFAOYSA-N,O=C1CNC(=S)N1c2ccccc2,-3.2425
B-1783,n-decylamine,MHZGKXUYDGKKIU-UHFFFAOYSA-N,CCCCCCCCCCN,-2.4564
B-1784,ethyl b-phenylpropionate,JAGZUIGGHGTFHO-UHFFFAOYSA-N,CCOC(=O)CCc1ccccc1,-2.9086
B-1786,aminocarb,IMIDOCRTMDIQIJ-UHFFFAOYSA-N,CNC(=O)Oc1ccc(N(C)C)c(C)c1,-2.3572
B-1787,methiocarb,YFBPRJGDJKVWAH-UHFFFAOYSA-N,CNC(=O)Oc1cc(C)c(SC)c(C)c1,-3.9214
B-1788,propylcyclopentane,KDIAMAVWIJYWHN-UHFFFAOYSA-N,CCCC1CCCC1,-4.7404
B-1789,"propanamide, 2-hydroxy-",SXQFCVDSOLSHOQ-UHFFFAOYSA-N,CC(O)C(N)=O,0.9435
B-1791,diethyl pimelate,LKKOGZVQGQUVHF-UHFFFAOYSA-N,CCOC(=O)CCCCCC(=O)OCC,-2.0408
B-1792,diethyl suberate,PEUGOJXLBSIJQS-UHFFFAOYSA-N,CCOC(=O)CCCCCCC(=O)OCC,-2.5304
B-1793,"1,2-dichloronaphthalene",MOXLHAPKZWTHEX-UHFFFAOYSA-N,Clc1ccc2ccccc2c1Cl,-6.1611
B-1794,"1,8-dichloronaphthalene",ADRYPAGQXFMVFP-UHFFFAOYSA-N,Clc1cccc2cccc(Cl)c12,-5.7963
B-1796,"2,4-dihydroxyazobenzene",PULNESMFDLBKAZ-SDNWHVSQSA-N,OC/1=CC(=O)C=CC1=N/Nc2ccccc2,-3.0299
B-1797,"dl-allothreonine, o-methyl-",FYCWLJLGIAUCCL-UHFFFAOYSA-N,COC(C)C(N)C(O)=O,0.4853
B-1799,"phenol, 4,4'-(3-methylbutylidene)bis-",SRFHDEQOIMRMHH-UHFFFAOYSA-N,CC(C)CC(c1ccc(O)cc1)c2ccc(O)cc2,-3.3674
B-1800,"pentanedioic acid, 2,4-dimethyl-",VIWYMIDWAOZEAZ-SYDPRGILSA-L,C[C@@H](C[C@@H](C)C([O-])=O)C([O-])=O,-0.4564
B-1801,clorexolone,VPMWFZKOWULPGT-UHFFFAOYSA-N,N[S](=O)(=O)c1cc2c(CN(C3CCCCC3)C2=O)cc1Cl,-4.3128
B-1802,"benzene, 1-bromo-3-isothiocyanato-",ZMGMGHNOACSMQN-UHFFFAOYSA-N,Brc1cccc(c1)N=C=S,-4.0851
B-1803,flumethasone,WXURHACBFYSXBI-GQKYHHCASA-N,C[C@@H]1C[C@H]2[C@@H]3C[C@H](F)C4=CC(=O)C=C[C@]4(C)[C@@]3(F)[C@@H](O)C[C@]2(C)[C@@]1(O)C(=O)CO,-5.6133
B-1804,"1,3-benzenediol, 4-cyclohexyl-",LSEHCENPUMUIKC-UHFFFAOYSA-N,Oc1ccc(C2CCCCC2)c(O)c1,-2.5763
B-1805,endosulfan diol,GTSJHTSVFKEASK-UHFFFAOYSA-N,OCC1C(CO)C2(Cl)C(=C(Cl)C1(Cl)C2(Cl)Cl)Cl,-3.0802
B-1806,"benzoic acid, 2-(4-bromobenzoyl)-",NONNFIAFWRSPPY-UHFFFAOYSA-N,OC(=O)c1ccccc1C(=O)c2ccc(Br)cc2,-3.0074
B-1807,4-ethylamino-6-isopropylamino-s-triazin-2-ol,NFMIMWNQWAWNDW-UHFFFAOYSA-N,CCNC1=NC(=O)N=C(NC(C)C)N1,-4.5241
B-1809,msma,JITOKQVGRJSHHA-UHFFFAOYSA-M,[Na+].C[As](O)([O-])=O,0.554
B-1810,lenacil,ZTMKADLOSYKWCA-UHFFFAOYSA-N,O=C1NC2=C(CCC2)C(=O)N1C3CCCCC3,-4.5916
B-1811,dicryl,VCBRBUKGTWLJOB-UHFFFAOYSA-N,CC(=C)C(=O)Nc1ccc(Cl)c(Cl)c1,-4.4325
B-1812,bcpc,CURLHBZYTFVCRG-UHFFFAOYSA-N,CCC(C)OC(=O)Nc1cccc(Cl)c1,-3.1727
B-1813,"naphthalene, 2-(2-methylpropoxy)-",XOHIHZHSDMWWMS-UHFFFAOYSA-N,CC(C)COc1ccc2ccccc2c1,-5.2117
B-1815,"2,7-dichloronaphthalene",DWBQZSYTSNYEEJ-UHFFFAOYSA-N,Clc1ccc2ccc(Cl)cc2c1,-5.9217
B-1816,"1h-pyrrole-2-carboxylic acid, 3,5-dimethyl-, eth",IZSBSZYFPYIJDI-UHFFFAOYSA-N,CCOC(=O)c1[nH]c(C)cc1C,-2.6212
B-1817,"1,3-benzenedicarboxylic acid, 4-methoxy-",JIICYHFLIOGGHE-UHFFFAOYSA-N,COc1ccc(cc1C(O)=O)C(O)=O,-3.1165
B-1818,"1,2-dimethylcyclohexane (cis)",KVZJLSYJROEPSQ-OCAPTIKFSA-N,C[C@H]1CCCC[C@H]1C,-4.2719
B-1820,"butane, 2,3-dichloro-, (r*,r*)-(.+-.)-",RMISVOPUIFJTEO-QWWZWVQMSA-N,C[C@@H](Cl)[C@@H](C)Cl,-2.3541
B-1821,"1-naphthalenecarboxylic acid, 8-nitro-",USMKVLABRYGBJX-UHFFFAOYSA-N,OC(=O)c1cccc2cccc(c12)[N+]([O-])=O,-2.7501
B-1822,4-methyloctane,DOGIHOCMZJUJNR-UHFFFAOYSA-N,CCCCC(C)CCC,-6.0474
B-1824,"naphthalene, 1-methoxy-",NQMUGNMMFTYOHK-UHFFFAOYSA-N,COc1cccc2ccccc12,-4.1992
B-1825,(+)-fenchol,IAIHUHQCLTYTSF-MRTMQBJTSA-N,CC1(C)[C@@H]2CC[C@@](C)(C2)[C@@H]1O,-2.2702
B-1826,"pentane, 3,3-bis(ethylsulfonyl)-",VTZYVPLHCQBWSP-UHFFFAOYSA-N,CCC(CC)([S](=O)(=O)CC)[S](=O)(=O)CC,-2.0625
B-1827,tetrasul,QUWSDLYBOVGOCW-UHFFFAOYSA-N,Clc1ccc(Sc2cc(Cl)c(Cl)cc2Cl)cc1,-7.0335
B-1828,dienochlor,LWLJUMBEZJHXHV-UHFFFAOYSA-N,ClC1=C(Cl)C(Cl)(C(=C1Cl)Cl)C2(Cl)C(=C(Cl)C(=C2Cl)Cl)Cl,-7.2784
B-1829,"2-cyclohexen-1-one, oxime, (z)-",WNPVAXLJVUXYFU-VOTSOKGWSA-N,O\N=C/1CCCC=C1,-0.9667
B-1830,octachloronaphthalene,RTNLUFLDZOAXIC-UHFFFAOYSA-N,Clc1c(Cl)c(Cl)c2c(Cl)c(Cl)c(Cl)c(Cl)c2c1Cl,-9.703
B-1831,m-aminobenzonitrile,NJXPYZHXZZCTNI-UHFFFAOYSA-N,Nc1cccc(c1)C#N,-1.1693
B-1832,nonanonitrile,PLZZPPHAMDJOSR-UHFFFAOYSA-N,CCCCCCCCC#N,-3.2987
B-1834,2-phenethylisothiocyanate,IZJDOKYDEWTZSO-UHFFFAOYSA-N,S=C=NCCc1ccccc1,-3.1714
B-1835,"2,3,3-trichloro-2-propenoic acid",WMUBNWIGNSIRDH-UHFFFAOYSA-M,[O-]C(=O)C(Cl)=C(Cl)Cl,-0.4659
B-1836,"1h-purine, 8-(trifluoromethyl)-",YGINUNRCDDYFKD-UHFFFAOYSA-N,FC(F)(F)c1[nH]c2cncnc2n1,-0.4505
B-1837,5-phenylpentanoic acid,BYHDDXPKOZIZRV-UHFFFAOYSA-N,OC(=O)CCCCc1ccccc1,-2.4657
B-1838,"7h-purine, 2,6-dichloro-7-methyl-",HVMUWHZAZGTMJK-UHFFFAOYSA-N,Cn1cnc2nc(Cl)nc(Cl)c12,-1.1522
B-1839,"phosphoric acid,2-chloro-(2,4-dichlorophenyl)vin",QSGNQELHULIMSJ-POHAHGRESA-N,CO[P](=O)(OC)OC(=C\Cl)/c1ccc(Cl)cc1Cl,-3.4066
B-1840,prothoate,QTXHFDHVLBDJIO-UHFFFAOYSA-N,CCO[P](=S)(OCC)SCC(=O)NC(C)C,-2.0575
B-1841,vamidothion,CUJJSLYROAWARJ-UHFFFAOYSA-N,CNC(=O)CCSCCS[P](=O)(OC)OC,0.5416
B-1842,"1-naphthalenecarboxylic acid, 2-hydroxy-",UPHOPMSGKZNELG-UHFFFAOYSA-N,OC(=O)c1c(O)ccc2ccccc12,-3.1284
B-1843,diallate,SPANOECCGNXGNR-UITAMQMPSA-N,CC(C)N(C(C)C)C(=O)SC\C(Cl)=C\Cl,-4.2856
B-1844,triallate,MWBPRDONLNQCFV-UHFFFAOYSA-N,CC(C)N(C(C)C)C(=O)SCC(Cl)=C(Cl)Cl,-4.8818
B-1845,"trans-cyclohexane-1,2-dicarboxylic acid",QSAWQNUELGIYBC-UHFFFAOYSA-N,OC(=O)C1CCCCC1C(O)=O,-1.935
B-1846,"2h-purin-2-one, 1,3-dihydro-",CRIZPXKICGBNKG-UHFFFAOYSA-N,O=C1Nc2nc[nH]c2C=N1,-1.7136
B-1847,"1h-purine-2,6,8(3h)-trione, 7,9-dihydro-1,3,7,9-",QGDOQULISIQFHQ-UHFFFAOYSA-N,CN1C(=O)N(C)C2=C(N(C)C(=O)N2C)C1=O,-0.9527
B-1848,phosalone,IOUNQDKNJZEDEP-UHFFFAOYSA-N,CCO[P](=S)(OCC)SCN1C(=O)Oc2cc(Cl)ccc12,-5.0813
B-1849,flurenol-butyl,PSGPXWYGJGGEEG-UHFFFAOYSA-N,CCCCOC(=O)C1(O)c2ccccc2c3ccccc13,-3.8885
B-1850,cdea,CQQUWTMMFMJEFE-UHFFFAOYSA-N,CCN(CC)C(=O)CCl,-0.243
B-1851,propyl benzoate,UDEWPOVQBGFNGE-UHFFFAOYSA-N,CCCOC(=O)c1ccccc1,-2.6701
B-1852,"benzenemethanol, 5-bromo-2-hydroxy-",KNKRHSVKIORZQB-UHFFFAOYSA-N,OCc1cc(Br)ccc1O,-0.2072
B-1853,"butanedioic acid, (1-methylethyl)-",RKAFKUROUOLPOL-UHFFFAOYSA-N,CC(C)C(CC(O)=O)C(O)=O,-0.4073
B-1854,"n-acetyl-l-phenylalanine, ethyl ester",YIVZYFDBEPMPNL-LBPRGKRZSA-N,CCOC(=O)[C@H](Cc1ccccc1)NC(C)=O,-1.7557
B-1855,"1,2,3,5-tetrafluorobenzene",UHHYOKRQTQBKSB-UHFFFAOYSA-N,Fc1cc(F)c(F)c(F)c1,-2.3057
B-1856,"2,2-dimethyl-1-pentanol",QTOMCRXZFDHJOL-UHFFFAOYSA-N,CCCC(C)(C)CO,-1.4391
B-1857,"3,4-(methylenedioxy)cinnamic acid",QFQYZMGOKIROEC-RQOWECAXSA-N,OC(=O)\C=C/c1ccc2OCOc2c1,-3.8523
B-1859,10-methyl-benz(a)anthracene,WUMGYHICFXGLAB-UHFFFAOYSA-N,Cc1ccc2cc3ccc4ccccc4c3cc2c1,-6.644
B-1860,9-methylbenz(a)anthracene,KYJPMPXTXCFCRM-UHFFFAOYSA-N,Cc1ccc2cc3c(ccc4ccccc34)cc2c1,-6.8162
B-1861,6-methylbenzo(a)pyrene,YFYHJNJCAGHSFA-UHFFFAOYSA-N,Cc1c2ccccc2c3ccc4cccc5ccc1c3c45,-8.5234
B-1862,2(3h)-benzoxazolethione,FLFWJIBUZQARMD-UHFFFAOYSA-N,S=C1Nc2ccccc2O1,-2.1795
B-1863,mirex,GVYLCNUFSHDAAW-UHFFFAOYSA-N,ClC1(Cl)C2(Cl)C3(Cl)C4(Cl)C(Cl)(Cl)C5(Cl)C3(Cl)C1(Cl)C5(Cl)C24Cl,-6.8074
B-1864,1-chloro-3-isothiocyanato-benzene,WGXCKFMVBAOIFH-UHFFFAOYSA-N,Clc1cccc(c1)N=C=S,-3.9507
B-1865,"1,8-nonadiyne",DMOVPHYFYSASTC-UHFFFAOYSA-N,C#CCCCCCC#C,-2.983
B-1866,n-oxidenicotinic acid,FJCFFCXMEXZEIM-UHFFFAOYSA-N,OC(=O)C1=C[NH++]([O-])[CH-]C=C1,-1.2983
B-1867,"phosphonic acid, ethyl-, dibutyl ester",SBRBXWIDHBSVPD-UHFFFAOYSA-N,CCCCO[P](=O)(CC)OCCCC,-1.5687
B-1868,dibutyl methylphosphonate,NPNBLTJGRBYCJB-UHFFFAOYSA-N,CCCCO[P](C)(=O)OCCCC,-1.4155
B-1869,"phenol, 2-phenoxy-",KDTZBYPBMTXCSO-UHFFFAOYSA-N,Oc1ccccc1Oc2ccccc2,-3.2286
B-1870,tri-sec-butanolamine,BFIAIMMAHAIVFT-UHFFFAOYSA-N,CCC(O)CN(CC(O)CC)CC(O)CC,-0.5229
B-1871,12-methylbenz(a)anthracene,ACYOLKMEHHTLAB-UHFFFAOYSA-N,Cc1c2ccccc2cc3ccc4ccccc4c13,-6.5648
B-1872,captafol,JHRWWRDRBPCWTF-UHFFFAOYSA-N,ClC(Cl)C(Cl)(Cl)SN1C(=O)C2CC=CCC2C1=O,-5.3968
B-1873,glycidyl n-butyl ether,YSUQLAYJZDEMOT-UHFFFAOYSA-N,CCCCOCC1CO1,-0.8135
B-1874,"4-methyl-2,6-dichlorophenol",YXEOEPYIBGTLML-UHFFFAOYSA-N,Cc1cc(Cl)c(O)c(Cl)c1,-1.4202
B-1875,"pteridine, 2-methyl-",BIGRRCHSUAXSEE-UHFFFAOYSA-N,Cc1ncc2nccnc2n1,-0.1191
B-1876,"pteridine, 4-methyl-",WESDBLALURHRDL-UHFFFAOYSA-N,Cc1ncnc2nccnc12,-0.4658
B-1878,oxythioquinox,FBQQHUGEACOBDN-UHFFFAOYSA-N,Cc1ccc2nc3SC(=O)Sc3nc2c1,-5.3698
B-1879,dodine,YIKWKLYQRFRGPM-UHFFFAOYSA-N,CCCCCCCCCCCCN=C(N)N.CC(O)=O,-2.6592
B-1880,o-methoxybenzamide,MNWSGMTUGXNYHJ-UHFFFAOYSA-N,COc1ccccc1C(N)=O,-1.7815
B-1881,glyphosine,OXHDYFKENBXUEM-UHFFFAOYSA-N,OC(=O)CN(C[P](O)(O)=O)C[P](O)(O)=O,-0.0256
B-1882,"ethanone, 2-(4-aminophenyl)-1-phenyl-",XBDWIJCZQWUMMU-UHFFFAOYSA-N,Nc1ccc(CC(=O)c2ccccc2)cc1,-1.805
B-1883,"4,4'-dichlorodiphenyl ether",URUJZHZLCCIILC-UHFFFAOYSA-N,Clc1ccc(Oc2ccc(Cl)cc2)cc1,-4.7999
B-1884,terpin hydrate (cis-form),JGKJMBOJWVAMIJ-UHFFFAOYSA-N,O.CC(C)(O)C1CCC(C)(O)CC1,-1.6774
B-1886,"1,4,5,8-tetraaminoanthraquinone",JSFUMBWFPQSADC-UHFFFAOYSA-N,Nc1ccc(N)c2C(=O)c3c(N)ccc(N)c3C(=O)c12,-6.9515
B-1887,medinoterb acetate,GZJNBGYLANALSV-UHFFFAOYSA-N,CC(=O)Oc1c(cc(c(C)c1C(C)(C)C)[N+]([O-])=O)[N+]([O-])=O,-4.4717
B-1888,"glycine, n-formyl-",UGJBHEZMOKVTIM-UHFFFAOYSA-N,OC(=O)CNC=O,0.2672
B-1889,"ethanone, 1-(4-hydroxyphenyl)-2-phenyl-",JBQTZLNCDIFCCO-UHFFFAOYSA-N,Oc1ccc(cc1)C(=O)Cc2ccccc2,-1.5008
B-1890,disulfoton sulfone,BKVJOVPVLOJPKJ-UHFFFAOYSA-N,CCO[P](=S)(OCC)SCC[S](=O)(=O)CC,-2.5403
B-1891,"benz[a]anthracene, 5-fluoro-7-methyl-",IGJZSNRZNHDOFW-UHFFFAOYSA-N,Cc1c2ccccc2cc3c1cc(F)c4ccccc34,-7.31
B-1892,1-methylbenz(a)anthracene,MWMBCXXTFFHALK-UHFFFAOYSA-N,Cc1cccc2ccc3cc4ccccc4cc3c12,-6.644
B-1893,2-nitro-5-chlorobenzoic acid,ZKUYSJHXBFFGPU-UHFFFAOYSA-N,OC(=O)c1cc(Cl)ccc1[N+]([O-])=O,-1.319
B-1894,dibutyl phenyl phosphate,YICSVBJRVMLQNS-UHFFFAOYSA-N,CCCCO[P](=O)(OCCCC)Oc1ccccc1,-3.4746
B-1895,chlorflurecol methyl,LINPVWIEWJTEEJ-UHFFFAOYSA-N,COC(=O)C1(O)c2ccccc2c3ccc(Cl)cc13,-4.1836
B-1897,formothion,AIKKULXCBHRFOS-UHFFFAOYSA-N,CO[P](=S)(OC)SCC(=O)N(C)C=O,-1.9954
B-1898,"benz[a]anthracene, 6-fluoro-7-methyl-",YTMJGWZZUJCJPE-UHFFFAOYSA-N,Cc1c2ccccc2cc3c4ccccc4cc(F)c13,-7.31