ID,Name,InChIKey,SMILES,Solubility
C-1184,benzadox;  2-(benzoylaminooxy)acetic  acid;  n-benzoyl-o-(carboxymethyl)hydroxylamine,WDRGQGLIUAMOOC-UHFFFAOYSA-N,OC(=O)CONC(=O)C1=CC=CC=C1,-0.95
C-1186,4-hydroxy-3-methoxycinnamic.acid;  ferulic.acid,KSEBMYQBYZTDHS-HWKANZROSA-N,COC1=C(O)C=CC(=C1)\C=C\C(O)=O,-3.05
C-1187,6-mercaptopurine;  6-purinethione,GLVAUDGFNGKCSF-UHFFFAOYSA-N,S=C1NC=NC2=C1N=C[NH]2,-2.95
C-1189,1-(n-methyl)carbamoyl-5-fluorouracil,CDACFMJJRHUMNA-UHFFFAOYSA-N,CNC(=O)N1C=C(F)C(=O)NC1=O,-2.28
C-1190,3-propionyl-5-fluorouracil;  3-propanoyl-5-fluorouracil,NALBVYNGIWXLJJ-UHFFFAOYSA-N,CCC(=O)N1C(=O)NC=C(F)C1=O,-0.7
C-1197,methyl  5-fluorouracil-1-carboxylate,VYTPEAPPYZRJCZ-UHFFFAOYSA-N,COC(=O)N1C=C(F)C(=O)NC1=O,-0.91
C-1199,1-acetoxymethyl-5-fluorouracil,RQIJPDNDFZUCEI-UHFFFAOYSA-N,CC(=O)OCN1C=C(F)C(=O)NC1=O,-0.67
C-1201,methyl acetylsalicylate;  2-acetoxybenzoic acid methyl ester,ONWPLBKWMAUFGZ-UHFFFAOYSA-N,COC(=O)C1=CC=CC=C1OC(C)=O,-1.84
C-1203,"xanthine;  purine-2,6-dione;  2,6(1h,3h)-purinedione",LRFVTYWOQMYALW-UHFFFAOYSA-N,O=C1NC(=O)C2=C([NH]C=N2)N1,-3.87
C-1204,3-acetoxymethyl-5-fluorouracil,DUAAVZPXVWYBII-UHFFFAOYSA-N,CC(=O)OCN1C(=O)NC=C(F)C1=O,-1.2
C-1205,"terbutylazine;  2-tert-butylamino-4-chloro-6-ethylamino-1,3,5-triazine",FZXISNSWEXTPMF-UHFFFAOYSA-N,CCNC1=NC(=NC(=N1)Cl)NC(C)(C)C,-4.43
C-1208,"simetryne; 2-methylthio-4,6-di(ethylamino)-1,3,5-triazine",MGLWZSOBALDPEK-UHFFFAOYSA-N,CCNC1=NC(=NC(=N1)NCC)SC,-2.73
C-1211,"2,2-bis(ethylsulfonyl)butane;  trional",LKACJLUUJRMGFK-UHFFFAOYSA-N,CCC(C)([S](=O)(=O)CC)[S](=O)(=O)CC,-1.91
C-1214,1-ethylcarbamoyl-5-fluorouracil;  1-ethylaminocarbonyl-5-fluorouracil,HQNJZCSCNOSIGA-UHFFFAOYSA-N,CCNC(=O)N1C=C(F)C(=O)NC1=O,-2.13
C-1216,"minoxidil;  2,4-diamino-6-piperidinopyrimidine 3-oxide",ZFMITUMMTDLWHR-UHFFFAOYSA-N,NC1=[N+]([O-])C(=NC(=C1)N2CCCCC2)N,-1.94
C-1217,3-ethoxycarboxymethyl-5-fluorouracil;  3-(ethoxycarbonyloxymethyl)-5-fluorouracil,PYIAFNMJTZYTJR-UHFFFAOYSA-N,CCOC(=O)OCN1C(=O)NC=C(F)C1=O,-1.46
C-1219,oxprenolol,CEMAWMOMDPGJMB-UHFFFAOYSA-N,CC(C)NCC(O)COC1=C(OCC=C)C=CC=C1,-0.32
C-1222,"prometon;  2,4-bis(isopropylamino)-6-methoxy-1,3,5-triazine",ISEUFVQQFVOBCY-UHFFFAOYSA-N,COC1=NC(=NC(=N1)NC(C)C)NC(C)C,-2.56
C-1223,1-ethoxycarbonyl-5-fluorouracil,XRHUFADXPHBXFZ-UHFFFAOYSA-N,CCOC(=O)N1C=C(F)C(=O)NC1=O,-1.47
C-1225,1-dimethylcarbamoyl-5-fluorouracil;  1-dimethylaminocarbonyl-5-fluorouracil,WMGRASJOZJGTSP-UHFFFAOYSA-N,CN(C)C(=O)N1C=C(F)C(=O)NC1=O,-1.53
C-1229,1-propanoyloxymethyl-5-fluorouracil,ZAAKYBGGELSVCK-UHFFFAOYSA-N,CCC(=O)OCN1C=C(F)C(=O)NC1=O,-0.81
C-1230,3-ethoxycarbonyl-5-fluorouracil,GNAMZNCNEUATEE-UHFFFAOYSA-N,CCOC(=O)N1C(=O)NC=C(F)C1=O,-0.45
C-1232,simvastatin,RYMZZMVNJRMUDD-UHFFFAOYSA-N,CCC(C)(C)C(=O)OC1CC(C)C=C2C=CC(C)C(CCC3CC(O)CC(=O)O3)C12,-5.48
C-1233,"1-(2,2-dimethylpropanoyloxymethyl)-5-fluorouracil;  1-pivaloyloxymethyl-5-fluorouracil",SYAUFWSKTQBAJI-UHFFFAOYSA-N,CC(C)(C)C(=O)OCN1C=C(F)C(=O)NC1=O,-2.03
C-1237,5-fluorouracil-1-methyl  butyrate;  1-butanoyloxymethyl-5-fluorouracil,HNKFVQSWWYMANO-UHFFFAOYSA-N,CCCC(=O)OCN1C=C(F)C(=O)NC1=O,-1.31
C-1238,n-(benzoyloxyacetyl)pyrrolidine,GILNGPKTMRSQDW-UHFFFAOYSA-N,O=C(COC(=O)C1=CC=CC=C1)N2CCCC2,-1.57
C-1239,penbutolol,KQXKVJAGOJTNJS-UHFFFAOYSA-N,CC(C)(C)NCC(O)COC1=C(C=CC=C1)C2CCCC2,-1.84
C-1241,"(n,n-dimethyl)carbamoylmethyl  salicylate; 2-(2-hydroxybenzoyloxy)-n,n-dimethylacetamide",SWLDDKZEHUBBOY-UHFFFAOYSA-N,CN(C)C(=O)COC(=O)C1=C(O)C=CC=C1,-1.71
C-1244,mevastatin,AJLFOPYRIVGYMJ-UHFFFAOYSA-N,CCC(C)C(=O)OC1CCC=C2C=CC(C)C(CCC3CC(O)CC(=O)O3)C12,-5.42
C-1245,butyl  5-fluorouracil-1-carboxylate;  1-butoxycarbonyl-5-fluorouracil,ZVRNEWNIEVRTIK-UHFFFAOYSA-N,CCCCOC(=O)N1C=C(F)C(=O)NC1=O,-1.59
C-1246,"dimethachlor;  2-chloro-n-(2,6-dimethylphenyl)-n-(2-methoxyethyl)acetamide",SCCDDNKJYDZXMM-UHFFFAOYSA-N,COCCN(C(=O)CCl)C1=C(C)C=CC=C1C,-2.09
C-1248,isobutyl  5-fluorouracil-1-carboxylate;  1-isobutoxycarbonyl-5-fluorouracil,DXDPKLIQOAVOAM-UHFFFAOYSA-N,CC(C)COC(=O)N1C=C(F)C(=O)NC1=O,-1.89
C-1249,"2-benzoyloxy-(n-ethyl,n-2-hydroxyethyl)acetamide;  n-ethyl-n-(2-hydroxyethyl)-2-(benzoyloxy)acetamide",IIZIPXWXNPFUOU-UHFFFAOYSA-N,CCN(CCO)C(=O)COC(=O)C1=CC=CC=C1,-1.37
C-1250,1-(2-chloroethoxycarbonyl)-5-fluorouracil,IBSNJPJRDXEITQ-UHFFFAOYSA-N,FC1=CN(C(=O)NC1=O)C(=O)OCCCl,-1.91
C-1254,levorphanol,JAQUASYNZVUNQP-UHFFFAOYSA-N,CN1CCC23CCCCC2C1CC4=C3C=C(O)C=C4,-2.72
C-1256,carbendazim; methyl n-(benzimidazol-2-yl)carbamate; 2-(methoxycarbonylamino)benzimidazole,TWFZGCMQGLPBSX-UHFFFAOYSA-N,COC(=O)NC1=NC2=CC=CC=C2[NH]1,-4.52
C-1257,pravastatin,OQARDMYXSOFTLN-UHFFFAOYSA-N,CCC(C)C(=O)OC1CC(O)C=C2C=CC(C)C(CCC3CC(O)CC(=O)O3)C12,-3.35
C-1261,chlorambucil,JCKYGMPEJWAADB-UHFFFAOYSA-N,OC(=O)CCCC1=CC=C(C=C1)N(CCCl)CCCl,-3.4
C-1263,"2-benzoyloxy-n,n-diisopropylacetamide;  n,n-diisopropyl-2-benzoyloxyacetamide",ZWUAUTPCFIIFAS-UHFFFAOYSA-N,CC(C)N(C(C)C)C(=O)COC(=O)C1=CC=CC=C1,-3.34
C-1264,"2-benzoyloxy-n,n-di(2-hydroxyethyl)acetamide;  n,n-di(2-hydroxyethyl)-2-(benzoyloxy)acetamide",UCIUVGVKELKZSD-UHFFFAOYSA-N,OCCN(CCO)C(=O)COC(=O)C1=CC=CC=C1,0.43
C-1267,hexyl  5-fluorouracil-1-carboxylate;  1-hexoxycarbonyl-5-fluorouracil,LAUBAKJLUNBTEP-UHFFFAOYSA-N,CCCCCCOC(=O)N1C=C(F)C(=O)NC1=O,-2.24
C-1269,"(n,n-diethyl)carbamoylmethyl  salicylate;  n,n-diethyl-2-(salicyloyloxy)acetamide",SHQRMVJGVCBCEC-UHFFFAOYSA-N,CCN(CC)C(=O)COC(=O)C1=C(O)C=CC=C1,-2.56
C-1272,dextromethorphan,MKXZASYAUGDDCJ-UHFFFAOYSA-N,COC1=CC2=C(CC3C4CCCCC24CCN3C)C=C1,-3.48
C-1273,"n1,n1,n4-trimethylsulfanilamide",GZPBMGVKWGJDIF-UHFFFAOYSA-N,CNC1=CC=C(C=C1)[S](=O)(=O)N(C)C,-3.08
C-1275,2-benzoyloxy-n-[(tris-hydroxymethyl)methyl]acetamide,MSMHOCZOEWMZOH-UHFFFAOYSA-N,OCC(CO)(CO)NC(=O)COC(=O)C1=CC=CC=C1,-1.27
C-1276,n-(2-benzoyloxyacetyl)-n-methylglycineamide,DLVAUVPZQHGFJC-UHFFFAOYSA-N,CN(CC(N)=O)C(=O)COC(=O)C1=CC=CC=C1,-0.92
C-1277,1-(n-octylcarbamoyl)-5-fluorouracil;  1-octylaminocarbonyl-5-fluorouracil,JNQHBKLRBXQHJO-UHFFFAOYSA-N,CCCCCCCCNC(=O)N1C=C(F)C(=O)NC1=O,-4.18
C-1278,"n-[2-(benzoyloxy)acetyl]-2,6-dimethylpiperidine",WJUSVIUZCYELMK-UHFFFAOYSA-N,CC1CCCC(C)N1C(=O)COC(=O)C2=CC=CC=C2,-3.26
C-1280,"2-benzoyloxy-n,n-bis(2-methoxyethyl)acetamide; n,n-bis(2-methoxyethyl)-2-benzoyloxyacetamide",LJCFRMUKLSCNKV-UHFFFAOYSA-N,COCCN(CCOC)C(=O)COC(=O)C1=CC=CC=C1,-1.57
C-1281,carbamoylmethyl  acetylsalicylate;  2-(2-acetoxybenzoyloxy)acetamide,KVNWJGCJKBJLRM-UHFFFAOYSA-N,CC(=O)OC1=CC=CC=C1C(=O)OCC(N)=O,-1.79
C-1282,furmecyclox;  furmetamide,QTDRLOKFLJJHTG-UHFFFAOYSA-N,CON(C1CCCCC1)C(=O)C2=C(C)OC(=C2)C,-2.92
C-1284,2-biphenylcarboxylic  acid;  2-phenylbenzoic acid,ILYSAKHOYBPSPC-UHFFFAOYSA-N,OC(=O)C1=C(C=CC=C1)C2=CC=CC=C2,-2.73
C-1287,ethyl n-(benzoyloxyacetyl)-n-methylglycinate; n-(benzoyloxyacetyl)-n-methylglycine ethyl ester,VPGYQOPHCDIWSQ-UHFFFAOYSA-N,CCOC(=O)CN(C)C(=O)COC(=O)C1=CC=CC=C1,-1.67
C-1288,1-(acetoxymethyl)allopurinol,UIJGCCLNZYPVFJ-UHFFFAOYSA-N,CC(=O)OC[N]1N=CC2=C1N=CNC2=O,-2.56
C-1290,2-carboxy-n(benzoyloxyacetyl)azetidine,JLZFEIOGWCNGPG-UHFFFAOYSA-N,OC(=O)C1CCN1C(=O)COC(=O)C2=CC=CC=C2,-2.14
C-1292,flurochloridone,OQZCSNDVOWYALR-UHFFFAOYSA-N,FC(F)(F)C1=CC=CC(=C1)N2CC(CCl)C(Cl)C2=O,-4.05
C-1295,n-ethyl-2-[(2-acetoxy)benzoyloxy]acetamide,QZTDIROWVCZJJV-UHFFFAOYSA-N,CCNC(=O)COC(=O)C1=CC=CC=C1OC(C)=O,-1.68
C-1297,ethoxycarbonylmetyl  acetylsalicylate;  2-(2-acetoxybenzoyloxy)acetic acid ethyl ester,HFSBGVJICLMJRK-UHFFFAOYSA-N,CCOC(=O)COC(=O)C1=CC=CC=C1OC(C)=O,-2.58
C-1298,"n,n-dimethyl-2-[(2-acetoxy)benzoyloxy]acetamide",FDTMXYKUFIZEMG-UHFFFAOYSA-N,CN(C)C(=O)COC(=O)C1=CC=CC=C1OC(C)=O,-1.55
C-1299,"n4-formyl-n1,n1,n4-trimethylsulfanilamide; n-[(4-dimethylsulfamoyl)phenyl]-n-methylformamide",XSDPZPWLUUGYHH-UHFFFAOYSA-N,CN(C)[S](=O)(=O)C1=CC=C(C=C1)N(C)C=O,-2.37
C-1301,o-acetyl-6-deoxyacyclovir,ZGBDUUGWUHBQNX-UHFFFAOYSA-N,CC(=O)OCCOC[N]1C=NC2=C1N=C(N)N=C2,-0.97
C-1303,n-(benzoyloxyacetyl)prolinamide,QUIKDFWIKDMXIO-UHFFFAOYSA-N,NC(=O)C1CCCN1C(=O)COC(=O)C2=CC=CC=C2,-2.27
C-1305,"morphine;  7,8-didehydro-4,5-epoxy-17-methylmorphinan-3,6-diol",BQJCRHHNABKAKU-UHFFFAOYSA-N,CN1CCC23C4OC5=C(O)C=CC(=C25)CC1C3C=CC4O,-3.15
C-1308,n-(benzoyloxyacetyl)proline,GZXGHZDSFNQRKK-UHFFFAOYSA-N,OC(=O)C1CCCN1C(=O)COC(=O)C2=CC=CC=C2,-1.59
C-1309,allopurin-2-yl-methyl  butyrate;  2-(butanoyloxymethyl)allopurinol,BKEJTAUUSZULEO-UHFFFAOYSA-N,CCCC(=O)OC[N]1C=C2C(=O)NC=NC2=N1,-2.2
C-1311,allopurin-1-yl-methyl  butyrate;   1-(butanoyloxymethyl)allopurinol,IIVOEPVKDWTLJB-UHFFFAOYSA-N,CCCC(=O)OC[N]1N=CC2=C1N=CNC2=O,-2.83
C-1314,n-acetyl-6-deoxyacyclovir,LPOUIKBMWDULCN-UHFFFAOYSA-N,CC(=O)NC1=NC2=C(C=N1)N=C[N]2COCCO,-0.86
C-1316,"n1,n1,n4-trimethyl-n4-acetylsulfanilamide",YDHAYUGJQGJRIJ-UHFFFAOYSA-N,CN(C)[S](=O)(=O)C1=CC=C(C=C1)N(C)C(C)=O,-2.3
C-1318,metalaxyl;  apron   (racemate),ZQEIXNIJLIKNTD-UHFFFAOYSA-N,COCC(=O)N(C(C)C(=O)OC)C1=C(C)C=CC=C1C,-1.6
C-1319,"(n,n-diethyl)carbamoylmethyl  acetylsalicylate;  n,n-diethyl-2-(2-acetoxybenzoyloxy)acetamide",HEFOCUJBDCFYAR-UHFFFAOYSA-N,CCN(CC)C(=O)COC(=O)C1=CC=CC=C1OC(C)=O,-2.11
C-1320,2-(pivaloyloxymethyl)allopurinol,WLATWLPHXIPYFO-UHFFFAOYSA-N,CC(C)(C)C(=O)OC[N]1C=C2C(=O)NC=NC2=N1,-2.17
C-1322,transfluthrin,DDVNRFNDOPPVQJ-UHFFFAOYSA-N,CC1(C)C(C=C(Cl)Cl)C1C(=O)OCC2=C(F)C(=CC(=C2F)F)F,-6.81
C-1323,1-(pivaloyloxymethyl)allopurinol,VNPZIVNSLRXKRF-UHFFFAOYSA-N,CC(C)(C)C(=O)OC[N]1N=CC2=C1N=CNC2=O,-2.68
C-1328,"3,4,5-trichlorodiphenyl  ether",ZQCCHNBMSHOJAT-UHFFFAOYSA-N,ClC1=C(Cl)C(=CC(=C1)OC2=CC=CC=C2)Cl,-6.77
C-1330,o-acetylacyclovir,DMHAXLGAKQREIL-UHFFFAOYSA-N,CC(=O)OCCOC[N]1C=NC2=C1N=C(N)NC2=O,-2.7
C-1333,"n1,n1,n4-trimethyl-n4-propanoylsulfanilamide",ZCPRMRBJNJMHRJ-UHFFFAOYSA-N,CCC(=O)N(C)C1=CC=C(C=C1)[S](=O)(=O)N(C)C,-2.48
C-1334,"2,4,5-trichlorodiphenyl  ether",UWKZWXCTDPYXHU-UHFFFAOYSA-N,ClC1=CC(=C(OC2=CC=CC=C2)C=C1Cl)Cl,-6.58
C-1336,morpholin-4-ylcarbonylmethyl  acetylsalicylate; n-[2-(2-acetoxybenzoyloxy)acetyl]morpholine,FLVLUDPFVUXEFV-UHFFFAOYSA-N,CC(=O)OC1=CC=CC=C1C(=O)OCC(=O)N2CCOCC2,-1.8
C-1339,1-amino-2-naphthalenesulfonic  acid,ONZWNZGVZFLMNZ-UHFFFAOYSA-N,NC1=C(C=CC2=C1C=CC=C2)[S](O)(=O)=O,-2.96
C-1340,fluroxypyr-meptyl;  fluroxypyr 1-methylheptyl ester,OLZQTUCTGLHFTQ-UHFFFAOYSA-N,CCCCCCC(C)OC(=O)COC1=NC(=C(Cl)C(=C1Cl)N)F,-6.43
C-1342,3-benzoyl-5-fluorouracil,OAPBZIITNDJWQW-UHFFFAOYSA-N,FC1=CNC(=O)N(C1=O)C(=O)C2=CC=CC=C2,-2.26
C-1343,2-acetoxybenzoic acid dipropylcarbamoylmethyl ester,XCEUBKDKAYYEQR-UHFFFAOYSA-N,CCCN(CCC)C(=O)COC(=O)C1=CC=CC=C1OC(C)=O,-2.65
C-1344,ferimzone,GOWLARCWZRESHU-UHFFFAOYSA-N,CC1=CC(=NC(=N1)NN=C(C)C2=CC=CC=C2C)C,-3.2
C-1345,n-[2-(2-acetoxybenzoyloxy)acetyl]glycineamide,UDKPETZNUFLIFG-UHFFFAOYSA-N,CC(=O)OC1=CC=CC=C1C(=O)OCC(=O)NCC(N)=O,-2.52
C-1346,"n1,n1,n4-trimethyl-n4-(butanoyl)sulfanilamide",HVRPQVNLNIHIRC-UHFFFAOYSA-N,CCCC(=O)N(C)C1=CC=C(C=C1)[S](=O)(=O)N(C)C,-2.16
C-1347,chloroquine,WHTVZRBIWZFKQO-UHFFFAOYSA-N,CCN(CC)CCCC(C)NC1=CC=NC2=C1C=CC(=C2)Cl,-2.83
C-1348,"n,n-diethyl-2-[(2-acetoxy)benzoyloxy]propanoic acid amide",OHSFPCVLIJXOLL-UHFFFAOYSA-N,CCN(CC)C(=O)C(C)OC(=O)C1=CC=CC=C1OC(C)=O,-1.6
C-1349,2-acetoxybenzoic acid diisopropylcarbamoylmethyl ester,WRGWFXXPBRCSIH-UHFFFAOYSA-N,CC(C)N(C(C)C)C(=O)COC(=O)C1=CC=CC=C1OC(C)=O,-3.25
C-1350,n-acetylacyclovir,DJMINGJGFGSDDB-UHFFFAOYSA-N,CC(=O)NC1=NC2=C(N=C[N]2COCCO)C(=O)N1,-1.92
C-1351,tolfenamic acid;  n-(2-methyl-3-chlorophenyl)anthranilic  acid,YEZNLOUZAIOMLT-UHFFFAOYSA-N,CC1=C(NC2=CC=CC=C2C(O)=O)C=CC=C1Cl,-5.06
C-1352,nalidixic acid methyl ester;  methyl  nalidixate,HAXZNPSPJMKMIQ-UHFFFAOYSA-N,CCN1C=C(C(=O)OC)C(=O)C2=C1N=C(C)C=C2,-2.7
C-1354,benzyl  5-fluorouracil-1-carboxylate;  1-benzyloxycarbonyl-5-fluorouracil,YJRPDIKAMSSUAS-UHFFFAOYSA-N,FC1=CN(C(=O)NC1=O)C(=O)OCC2=CC=CC=C2,-2.82
C-1355,hexythiazox,XGWIJUOSCAQSSV-UHFFFAOYSA-N,CC1C(SC(=O)N1C(=O)NC2CCCCC2)C3=CC=C(Cl)C=C3,-5.85
C-1357,phenyl  5-fluorouracil-1-carboxylate;  1-phenyloxycarbonyl-5-fluorouracil,HPLGRDDPZODNAW-UHFFFAOYSA-N,FC1=CN(C(=O)NC1=O)C(=O)OC2=CC=CC=C2,-2.44
C-1358,"n1,n1,n4-trimethyl-n4-pentanoylsulfanilamide",HCFYDULVKOUISH-UHFFFAOYSA-N,CCCCC(=O)N(C)C1=CC=C(C=C1)[S](=O)(=O)N(C)C,-2.85
C-1361,"n9-(n,n-diethylglycyloxymethyl)allopurinol",YVDDVGOVEDYMLX-UHFFFAOYSA-N,CCN(CC)CC(=O)OC[N]1N=CC2=C1N=CNC2=O,-1.79
C-1362,phenyl  5-fluorouracil-3-carboxylate;  3-phenyloxycarbonyl-5-fluorouracil,OKVXWLFRHOXZPA-UHFFFAOYSA-N,FC1=CNC(=O)N(C(=O)OC2=CC=CC=C2)C1=O,-3.22
C-1364,guanosine,NYHBQMYGNKIUIF-UHFFFAOYSA-N,NC1=NC2=C(N=C[N]2C3OC(CO)C(O)C3O)C(=O)N1,-2.74
C-1372,"n1,n1-dimethyl-n4-hexanoyl-n4-methylsulfanilamide; n-[(4-dimethylsulfamoyl)phenyl]-n-methylhexanoic acid amide",XKZWBUMTAFVMJT-UHFFFAOYSA-N,CCCCCC(=O)N(C)C1=CC=C(C=C1)[S](=O)(=O)N(C)C,-2.95
C-1373,"n,o-diacetyl-6-deoxyacyclovir",NZSQZKSAMAZAEC-UHFFFAOYSA-N,CC(=O)NC1=NC2=C(C=N1)N=C[N]2COCCOC(C)=O,-0.73
C-1374,paclobutrazol,RMOGWMIKYWRTKW-UHFFFAOYSA-N,CC(C)(C)C(O)C(CC1=CC=C(Cl)C=C1)[N]2C=NC=N2,-4.05
C-1375,celiprolol,JOATXPAWOHTVSZ-UHFFFAOYSA-N,CCN(CC)C(=O)NC1=CC(=C(OCC(O)CNC(C)(C)C)C=C1)C(C)=O,-1.9
C-1377,n-2-(2-acetoxybenzoyloxy)acetylglycine ethyl ester,RENNXOTVYDMFOD-UHFFFAOYSA-N,CCOC(=O)CNC(=O)COC(=O)C1=CC=CC=C1OC(C)=O,-1.87
C-1378,"2,2',4,4'-tetrachlorodiphenyl  ether",ZRWRPGGXCSSBAO-UHFFFAOYSA-N,ClC1=CC(=C(OC2=CC=C(Cl)C=C2Cl)C=C1)Cl,-6.82
C-1379,dicapthon;  dicaptan,OTKXWJHPGBRXCR-UHFFFAOYSA-N,CO[P](=S)(OC)OC1=C(Cl)C=C(C=C1)[N+]([O-])=O,-4.68
C-1380,3-(phenoxycarboxymethyl)-5-fluorouracil; 3-(phenoxycarbonyloxymethyl)-5-fluorouracil,SJJLAYXHDHWNSV-UHFFFAOYSA-N,FC1=CNC(=O)N(COC(=O)OC2=CC=CC=C2)C1=O,-2.45
C-1382,n-[4-(dimethylsulfamoyl)phenyl]-n-methylheptanoic acid amide,HHMGSXBJVFFCGH-UHFFFAOYSA-N,CCCCCCC(=O)N(C)C1=CC=C(C=C1)[S](=O)(=O)N(C)C,-3.68
C-1384,"n1,n4,n4-trimethyl-n1-(heptanoyl)sulfanilamide",QHVARHTXPQPYKM-UHFFFAOYSA-N,CCCCCCC(=O)N(C)[S](=O)(=O)C1=CC=C(C=C1)N(C)C,-3.68
C-1386,"n1,n1,n4-trimethyl-n4-(octanoyl)sulfanilamide; n-[(4-dimethylsulfamoyl)phenyl]-n-methyloctanoic acid amide",KPHZMBYXFKPLCC-UHFFFAOYSA-N,CCCCCCCC(=O)N(C)C1=CC=C(C=C1)[S](=O)(=O)N(C)C,-3.59
C-1388,"2,5-bis(acetoxymethyl)allopurinol",DHIFEVBBJSAIAC-UHFFFAOYSA-N,CC(=O)OC[N]1C=C2C(=O)N(COC(C)=O)C=NC2=N1,-1.99
C-1389,n-methyl-n-(2-(2'-acetoxy)benzoyloxy)acetylglycine ethyl ester,ZEMRQSGEJWXCQZ-UHFFFAOYSA-N,CCOC(=O)CN(C)C(=O)COC(=O)C1=CC=CC=C1OC(C)=O,-2.55
C-1391,naproxen carbamoylmethyl ester;  naproxen  ester va,COCAVGOWOPNYOD-UHFFFAOYSA-N,COC1=CC=C2C=C(C=CC2=C1)C(C)C(=O)OCC(N)=O,-3.93
C-1392,azamethiphos,VNKBTWQZTQIWDV-UHFFFAOYSA-N,CO[P](=O)(OC)SCN1C(=O)OC2=CC(=CN=C12)Cl,-2.47
C-1394,naloxone,UZHSEJADLWPNLE-UHFFFAOYSA-N,OC1=C2OC3C(=O)CCC4(O)C5CC(=C2C34CCN5CC=C)C=C1,-3.39
C-1396,"succinimid-1-ylmethyl  acetylsalicylate;  n-[(2-acetoxy)benzoyloxymethyl]pyrrolidine-2,5-dione",LNIRSJVVXSYEBA-UHFFFAOYSA-N,CC(=O)OC1=CC=CC=C1C(=O)OCN2C(=O)CCC2=O,-2.77
C-1399,desmedipham,WZJZMXBKUWKXTQ-UHFFFAOYSA-N,CCOC(=O)NC1=CC(=CC=C1)OC(=O)NC2=CC=CC=C2,-4.52
C-1400,indoprofen,RJMIEHBSYVWVIN-UHFFFAOYSA-N,CC(C(O)=O)C1=CC=C(C=C1)N2CC3=C(C=CC=C3)C2=O,-4.72
C-1402,"n,o-diacetylacyclovir",VBHLKZHSCMQLTI-UHFFFAOYSA-N,CC(=O)NC1=NC2=C(N=C[N]2COCCOC(C)=O)C(=O)N1,-2.14
C-1407,"triazoxide;  7-chloro-3-(1h-imidazol-1-yl)-1,2,4-benzotriazine 1-oxide",IQGKIPDJXCAMSM-UHFFFAOYSA-N,[O-][N+]1=NC(=NC2=C1C=C(Cl)C=C2)[N]3C=CN=C3,-3.63
C-1409,"sulfamoxole;  2-sulfa-4,5-dimethyloxazole",CYFLXLSBHQBMFT-UHFFFAOYSA-N,CC1=C(C)N=C(N[S](=O)(=O)C2=CC=C(N)C=C2)O1,-2.22
C-1410,"2,3,3',4,4'-pentachlorodiphenyl  ether",PKEGIXYNAGGYPN-UHFFFAOYSA-N,ClC1=CC=C(OC2=C(Cl)C(=C(Cl)C=C2)Cl)C=C1Cl,-7.67
C-1411,itanoxone,HJWLWNLAIBFKDO-UHFFFAOYSA-N,OC(=O)C(=C)CC(=O)C1=CC=C(C=C1)C2=CC=CC=C2Cl,-3.2
C-1412,"1-(n,n-diethylsuccinamoyloxymethyl)allopurinol",ZEXLWXYSVRCCCY-UHFFFAOYSA-N,CCN(CC)C(=O)CCC(=O)OC[N]1N=CC2=C1N=CNC2=O,-0.99
C-1413,"naproxen (n,n-dimethylcarbamoyl)methyl ester",IBUVVTIRLMVASK-UHFFFAOYSA-N,COC1=CC=C2C=C(C=CC2=C1)C(C)C(=O)OCC(=O)N(C)C,-4.9
C-1417,"tetrachlorvinphos;  2-chloro-1-(2,4,5-trichlorophenyl)vinyl dimethyl phosphate",UBCKGWBNUIFUST-YHYXMXQVSA-N,CO[P](=O)(OC)OC(=C\Cl)/C1=C(Cl)C=C(Cl)C(=C1)Cl,-4.52
C-1418,kresoxim-methyl,ZOTBXTZVPHCKPN-ZPHPHTNESA-N,CO/N=C(C(=O)OC)/C1=C(COC2=C(C)C=CC=C2)C=CC=C1,-5.19
C-1419,"eriodictyol;  3',4',5,7-tetrahydroxyflavanone",SBHXYTNGIZCORC-UHFFFAOYSA-N,OC1=CC(=C2C(=O)CC(OC2=C1)C3=CC=C(O)C(=C3)O)O,-3.62
C-1420,acetoxymethyl  nalidixate;  nalidixic acid acetoxymethyl ester,NWWLCGROZMKOTG-UHFFFAOYSA-N,CCN1C=C(C(=O)OCOC(C)=O)C(=O)C2=C1N=C(C)C=C2,-2.49
C-1425,1-(benzoyloxymethyl)allopurinol,NWZNKSOQRRBBJE-UHFFFAOYSA-N,O=C1NC=NC2=C1C=N[N]2COC(=O)C3=CC=CC=C3,-4.05
C-1427,"2,5-bis(butanoyloxymethyl)allopurinol",PYKOSNOHCYDWPP-UHFFFAOYSA-N,CCCC(=O)OC[N]1C=C2C(=O)N(COC(=O)CCC)C=NC2=N1,-3.55
C-1429,propanoyloxymethyl  nalidixate;  nalidixic acid propanoyloxymethyl ester,YXRWLNMEWXCOIE-UHFFFAOYSA-N,CCN1C=C(C(=O)OCOC(=O)CC)C(=O)C2=C1N=C(C)C=C2,-2.83
C-1430,fensulfothion-sulfone,VTFZEBCYVXMEBB-UHFFFAOYSA-N,CCO[P](=S)(OCC)OC1=CC=C(C=C1)[S](C)(=O)=O,-3.58
C-1431,"naproxen (n,n-diethylcarbamoyl)methyl ester",WABNCOPYWOQKLV-UHFFFAOYSA-N,CCN(CC)C(=O)COC(=O)C(C)C1=CC2=CC=C(OC)C=C2C=C1,-4.46
C-1432,naproxen ester ve;  naproxen [n-(2-hydroxyethyl)-n-methyl-carbamoyl]methyl ester,UKUHRIHGVXNNCI-UHFFFAOYSA-N,COC1=CC=C2C=C(C=CC2=C1)C(C)C(=O)OCC(=O)N(C)CCO,-3.39
C-1435,"2,5-bis(pivaloyloxymethyl)allopurinol",IOFJWHCIWURTCZ-UHFFFAOYSA-N,CC(C)(C)C(=O)OC[N]1C=C2C(=O)N(COC(=O)C(C)(C)C)C=NC2=N1,-3.91
C-1437,"2,3',4,4',5,5'-hexachlorodiphenyl  ether",DYSUSQZPGJXVAL-UHFFFAOYSA-N,ClC1=CC(=C(OC2=CC(=C(Cl)C(=C2)Cl)Cl)C=C1Cl)Cl,-8.72
C-1438,oxadiazon,CHNUNORXWHYHNE-UHFFFAOYSA-N,CC(C)OC1=C(Cl)C=C(Cl)C(=C1)N2N=C(OC2=O)C(C)(C)C,-5.54
C-1441,"2,3,3',4,4',5-hexachlorodiphenyl  ether",GHTWMHLFFDEYRE-UHFFFAOYSA-N,ClC1=CC=C(OC2=C(Cl)C(=C(Cl)C(=C2)Cl)Cl)C=C1Cl,-8.78
C-1442,"2,2',4,4',5,5'-hexachlorodiphenyl  ether",PECXRRMHOQBOIE-UHFFFAOYSA-N,ClC1=CC(=C(OC2=CC(=C(Cl)C=C2Cl)Cl)C=C1Cl)Cl,-8.36
C-1444,"1,5-bis(pivaloyloxymethyl)allopurinol",XEXFVLNTPDXOJB-UHFFFAOYSA-N,CC(C)(C)C(=O)OCN1C=NC2=C(C=N[N]2COC(=O)C(C)(C)C)C1=O,-4.26
C-1445,"2,2',3,4,4',5'-hexachlorodiphenyl  ether",PHSJJYZIFPWCLZ-UHFFFAOYSA-N,ClC1=C(Cl)C(=C(OC2=CC(=C(Cl)C=C2Cl)Cl)C=C1)Cl,-8.31
C-1446,methyl thiabendazole-1-carboxylate; 1-methoxycarbonylthiabendazole; 1-methoxycarbonyl-2-(4-thiazolyl)benzimidazole,XOLFCAOGEVVBST-UHFFFAOYSA-N,COC(=O)[N]1C2=C(C=CC=C2)N=C1C3=CSC=N3,-3.11
C-1447,"2,2',3,3',4,4'-hexachlorodiphenyl  ether",ATIMVMORQPKRPC-UHFFFAOYSA-N,ClC1=C(Cl)C(=C(OC2=CC=C(Cl)C(=C2Cl)Cl)C=C1)Cl,-8.14
C-1448,butanoyloxymethyl nalidixate;  nalidixic acid butanoyloxymethyl ester,YCPMGOBLONVZFZ-UHFFFAOYSA-N,CCCC(=O)OCOC(=O)C1=CN(CC)C2=C(C=CC(=N2)C)C1=O,-2.95
C-1449,"2,2',3,4,4',5-hexachlorodiphenyl  ether",LDPJEMNNPDFBCQ-UHFFFAOYSA-N,ClC1=CC=C(OC2=C(Cl)C(=C(Cl)C(=C2)Cl)Cl)C(=C1)Cl,-8.44
C-1450,"2,2',4,4',5,6'-hexachlorodiphenyl  ether",XKQUAQGQLZDDBV-UHFFFAOYSA-N,ClC1=CC(=C(OC2=C(Cl)C=C(Cl)C(=C2)Cl)C(=C1)Cl)Cl,-8.04
C-1452,isobutanoyloxymethyl nalidixate;  nalidixic acid isobutanoyloxymethyl ester,UHAXPDKVSONCGG-UHFFFAOYSA-N,CCN1C=C(C(=O)OCOC(=O)C(C)C)C(=O)C2=C1N=C(C)C=C2,-3.02
C-1453,"2,2',3,4,4',6'-hexachlorodiphenyl  ether",XDAOZRZWYVKIAK-UHFFFAOYSA-N,ClC1=CC(=C(OC2=C(Cl)C(=C(Cl)C=C2)Cl)C(=C1)Cl)Cl,-8.1
C-1455,"2,3,4,4',5,6-hexachlorodiphenyl  ether",MXDRLBNLTLOWGV-UHFFFAOYSA-N,ClC1=CC=C(OC2=C(Cl)C(=C(Cl)C(=C2Cl)Cl)Cl)C=C1,-8.94
C-1456,clodinafop-propargyl,JBDHZKLJNAIJNC-UHFFFAOYSA-N,CC(OC1=CC=C(OC2=NC=C(Cl)C=C2F)C=C1)C(=O)OCC#C,-5.15
C-1458,temazepam;  3-hydroxydiazepam,SEQDDYPDSLOBDC-UHFFFAOYSA-N,CN1C(=O)C(O)N=C(C2=CC=CC=C2)C3=C1C=CC(=C3)Cl,-2.7
C-1463,clozapine,QZUDBNBUXVUHMW-UHFFFAOYSA-N,CN1CCN(CC1)C2=NC3=C(NC4=C2C=CC=C4)C=CC(=C3)Cl,-4.64
C-1464,ethyl thiabendazole-1-carboxylate; 1-ethoxycarbonylthiabendazole; 1-ethoxycarbonyl-2-(4-thiazolyl)benzimidazole,UGRWIGCKFYJTEL-UHFFFAOYSA-N,CCOC(=O)[N]1C2=C(C=CC=C2)N=C1C3=CSC=N3,-2.92
C-1467,"naproxen [n,n-bis(2-hydroxyethyl)carbamoyl]methyl ester",FZLRPSHQNAHYAG-UHFFFAOYSA-N,COC1=CC=C2C=C(C=CC2=C1)C(C)C(=O)OCC(=O)N(CCO)CCO,-2.96
C-1469,prazepam,MWQCHHACWWAQLJ-UHFFFAOYSA-N,ClC1=CC2=C(C=C1)N(CC3CC3)C(=O)CN=C2C4=CC=CC=C4,-4.91
C-1471,"n,n-diethylcarbamoylmethyl nalidixate;  nalidixic acid (n,n-diethylcarbamoyl)methyl ester",XZIBWWMTMXSPOO-UHFFFAOYSA-N,CCN(CC)C(=O)COC(=O)C1=CN(CC)C2=C(C=CC(=N2)C)C1=O,-1.43