ID,Name,InChIKey,SMILES,Solubility
A-5147,oxolan-2-ylmethanol,BSYVTEYKTMYBMK-UHFFFAOYSA-N,OCC1CCCO1,0.3887739198
A-5148,{2-[(2-methylprop-2-enoyl)oxy]ethoxy}phosphonic acid,POLZHVHESHDZRD-UHFFFAOYSA-N,CC(=C)C(=O)OCCO.O[P](O)(O)=O,-0.9602557176
A-5152,sodium 4-ethenylbenzene-1-sulfonate,XFTALRAZSCGSKN-UHFFFAOYSA-M,[Na+].[O-][S](=O)(=O)c1ccc(C=C)cc1,-0.0332510813
A-5154,"pentane-2,4-dione",YRKCREAYFQTBPV-UHFFFAOYSA-N,CC(=O)CC(C)=O,0.1864485079
A-5155,"1,3-dimethyl propanedioate",BEPAFCGSDWSTEL-UHFFFAOYSA-N,COC(=O)CC(=O)OC,0.0273419683
A-5156,"trimagnesium(2+) ion bis(2-hydroxypropane-1,2,3-tricarboxylate)",AOHMFUYIHARAGR-UHFFFAOYSA-N,[Mg].[Mg].[Mg].OC(=O)CC(O)(CC(O)=O)C(O)=O.OC(=O)CC(O)(CC(O)=O)C(O)=O,-1.5461258217
A-5157,"disodium (2R,3R,4S,5R,6R)-2,3,4,5,6,7-hexahydroxyheptanoate (2S,3R,4S,5R,6R)-2,3,4,5,6,7-hexahydroxyheptanoate",FMYOMWCQJXWGEN-BMZZJELJSA-M,[Na+].OC[C@@H](O)[C@@H](O)[C@H](O)[C@@H](O)C(O)C([O-])=O,0.7066663199
A-5160,"1,1,3,3-tetramethylguanidine",KYVBNYUBXIEUFW-UHFFFAOYSA-N,CN(C)C(=N)N(C)C,0.9386229258
A-5161,"1,3-dihydroxypropan-2-yl 2-sulfanylacetate 2,3-dihydroxypropyl 2-sulfanylacetate",DOGJSOZYUGJVKS-UHFFFAOYSA-N,OCC(O)COC(=O)CS,0.7793742068
A-5162,2-{2-[2-(2-hydroxyethoxy)ethoxy]ethoxy}ethan-1-ol,UWHCKJMYHZGTIT-UHFFFAOYSA-N,OCCOCCOCCOCCO,0.7116903978
A-5163,"3-methylpentane-1,5-diol",SXFJDZNJHVPHPH-UHFFFAOYSA-N,CC(CCO)CCO,0.927470714
A-5164,bis(2-hydroxyethyl)azanium acetate,IDOGARCPIAAWMC-UHFFFAOYSA-N,CC(O)=O.OCCNCCO,0.7820188759
A-5166,methanol,OKKJLVBELUTLKV-UHFFFAOYSA-N,CO,1.4942803839
A-5167,tris(2-hydroxyethyl)azanium acetate,UPCXAARSWVHVLY-UHFFFAOYSA-N,CC(O)=O.OCCN(CCO)CCO,0.6793511375
A-5168,Sulfolane,HXJUTPCZVOIRIF-UHFFFAOYSA-N,O=[S]1(=O)CCCC1,-0.079806903
A-5169,2-hydroxyethyl 2-methylprop-2-enoate,WOBHKFSMXKNTIM-UHFFFAOYSA-N,CC(=C)C(=O)OCCO,-0.1144208137
A-5171,3-[1-hydroxy-2-(methylamino)ethyl]phenol hydrochloride,OCYSGIYOVXAGKQ-UHFFFAOYSA-N,Cl.CNCC(O)c1cccc(O)c1,-0.308924931
A-5172,3-methoxy-3-methylbutan-1-ol,MFKRHJVUCZRDTF-UHFFFAOYSA-N,COC(C)(C)CCO,-0.072529286
A-5173,"zinc O,O,O',O'-tetrabutyl bis(phosphorodithioate)",MECFLMNXIXDIOF-UHFFFAOYSA-L,[Zn++].CCCCO[P]([S-])(=S)OCCCC.CCCCO[P]([S-])(=S)OCCCC,-2.5083839395
A-5174,sodium 4-[(E)-2-(2-hydroxynaphthalen-1-yl)diazen-1-yl]naphthalene-1-sulfonate,YCRBPWIFISBYGJ-QPNALZDCSA-M,[Na+].[O-][S](=O)(=O)c1ccc(N\N=C2\C(=O)C=Cc3ccccc23)c4ccccc14,-2.4263930478
A-5176,zinc(2+) ion bis(2-ethylhexanoate),IFNXAMCERSVZCV-UHFFFAOYSA-L,[Zn++].CCCCC(CC)C([O-])=O.CCCCC(CC)C([O-])=O,0.4554354087
A-5177,sodium bis(butan-2-yl) sulfanidyl(sulfanylidene)phosphonite,FVLCBQUCLOPWGZ-UHFFFAOYSA-M,[Na+].CCC(C)O[P]([S-])(=S)OC(C)CC,-2.4221431699
A-5179,6-[(1-formyloctyl)amino]hexanoic acid,KWAKSEGGFHCMJS-UHFFFAOYSA-N,CC(C)CCCCCC(=O)NCCCCCC(O)=O,-2.7708536118
A-5182,nonanoic acid,FBUKVWPVBMHYJY-UHFFFAOYSA-N,CCCCCCCCC(O)=O,-2.7221977641
A-5183,6-hydroxy-2-naphthoic acid,KAUQJMHLAFIZDU-UHFFFAOYSA-N,OC(=O)c1ccc2cc(O)ccc2c1,-3.2789428853
A-5184,Nickel subsulfide,UPSUSTJZZWSTPN-UHFFFAOYSA-N,[Ni][Ni][Ni]=[S]=S,-4.514309168
A-5185,1-tert-butyl-4-vinylbenzene,QEDJMOONZLUIMC-UHFFFAOYSA-N,CC(C)(C)c1ccc(C=C)cc1,-4.5633510279
A-5186,"3,5-dimethylbenzoyl chloride",ZJIOBDJEKDUUCI-UHFFFAOYSA-N,Cc1cc(C)cc(c1)C(Cl)=O,-3.3292897203
A-5187,copper(II) carbonate--copper(II) hydroxide (1:1),ZMMDPCMYTCRWFF-UHFFFAOYSA-J,[OH-].[OH-].[Cu++].[Cu++].[O-]C([O-])=O,-5.1432191168
A-5188,"2,5-diphenyl-1,3-oxazole",CNRNYORZJGVOSY-UHFFFAOYSA-N,o1c(cnc1c2ccccc2)c3ccccc3,-5.5532102962
A-5189,dioxomanganese,NUJOXMJBOLGQSY-UHFFFAOYSA-N,O=[Mn]=O,-6.1610484037
A-5190,"2-amino-2-ethylpropane-1,3-diol",IOAOAKDONABGPZ-UHFFFAOYSA-N,CCC(N)(CO)CO,0.9015785325
A-5191,bis(pyridin-1-ium) [(oxidodioxochromio)oxy]chromiumoylolate,RCBVKBFIWMOMHF-UHFFFAOYSA-L,O[Cr](=O)(=O)O[Cr](O)(=O)=O.c1ccncc1.c2ccncc2,0.3990871294
A-5193,"cyclohexane-1,2-diamine",SSJXIUAHEKJCMH-OLQVQODUSA-P,[NH3+][C@H]1CCCC[C@H]1[NH3+],0.8890064826
A-5194,sodium 2-sulfanylethan-1-olate,RYBWXHDKJVRTES-UHFFFAOYSA-N,[Na+].[O-]CCS,0.9537303441
A-5195,"1,3,5-tris(oxiran-2-ylmethyl)-1,3,5-triazinane-2,4,6-trione",OUPZKGBUJRBPGC-UHFFFAOYSA-N,O=C1N(CC2CO2)C(=O)N(CC3CO3)C(=O)N1CC4CO4,-1.495423095
A-5196,"2,4,6-tris[(dimethylamino)methyl]phenol",AHDSRXYHVZECER-UHFFFAOYSA-N,CN(C)Cc1cc(CN(C)C)c(O)c(CN(C)C)c1,0.5055163708
A-5197,cesium formate,ATZQZZAXOPPAAQ-UHFFFAOYSA-N,[Cs+].OC=O,0.6746872011
A-5198,2-[2-(carboxymethoxy)ethoxy]acetic acid,CQWXKASOCUAEOW-UHFFFAOYSA-N,OC(=O)COCCOCC(O)=O,0.6709250275
A-5199,N-(methoxymethyl)-2-methylprop-2-enamide,YOZHLACIXDCHPV-UHFFFAOYSA-N,COCNC(=O)C(C)=C,0.7919653131
A-5201,pentasodium 2-[bis({2-[bis(carboxylatomethyl)amino]ethyl})amino]acetate,LQPLDXQVILYOOL-UHFFFAOYSA-I,[Na+].[Na+].[Na+].[Na+].[Na+].[O-]C(=O)CN(CCN(CC([O-])=O)CC([O-])=O)CCN(CC([O-])=O)CC([O-])=O,0.2012984367
A-5202,"N-butyl-2,2,6,6-tetramethylpiperidin-4-amine",FDAKZQLBIFPGSV-UHFFFAOYSA-N,CCCCNC1CC(C)(C)NC(C)(C)C1,0.5746150304
A-5203,hydrogen sulfate; tetrakis(hydroxymethyl)phosphanium; urea,UMQVFBAWZJWILK-UHFFFAOYSA-M,NC(N)=O.OC[P+](CO)(CO)CO.O[S]([O-])(=O)=O,0.4036921179
A-5204,"trisodium 7-[[2-[(aminocarbonyl)amino]-4-[(4-amino-6-chloro-1,3,5-triazin-2-yl)amino]phenyl]azo]naphthalene-1,3,5-trisulphonate",DSKGJDYCSBLEMI-UHFFFAOYSA-K,[Na+].[Na+].[Na+].NC(=O)Nc1cc(Nc2nc(N)nc(Cl)n2)ccc1N=Nc3cc4c(cc(cc4[S]([O-])(=O)=O)[S]([O-])(=O)=O)cc3[S]([O-])(=O)=O,-1.0000005869
A-5205,disodium disilicate,OQEVSCYDUYRAAM-UHFFFAOYSA-N,[Na+].[Na+].[O-][Si](=O)O[Si]([O-])=O,0.5846760173
A-5206,tert-butyl hydroperoxide,CIHOLLKRGTVIJN-UHFFFAOYSA-N,CC(C)(C)OO,0.8846472263
A-5207,"sodium 4-{4-[(E)-2-(3-chloro-2-hydroxy-5-nitrophenyl)diazen-1-yl]-3-methyl-5-oxo-4,5-dihydro-1H-pyrazol-1-yl}benzene-1-sulfonate",ZKFDTMJWIJPGLE-PUBYZPQMSA-M,[Na+].CC1=NN(C(=O)C1N\N=C\2C=C(C=C(Cl)C2=O)[N+]([O-])=O)c3ccc(cc3)[S]([O-])(=O)=O,-0.8385771725
A-5208,Cobaltous nitrate hexahydrate,QGUAJWGNOXCYJF-UHFFFAOYSA-N,O.O.O.O.O.O.[Co++].[O-][N+]([O-])=O.[O-][N](=O)=O,0.3618761934
A-5209,tetrakis(hydroxymethyl)phosphanium; urea; chloride,SNIVVKDUMQYBAV-UHFFFAOYSA-M,[Cl-].NC(N)=O.OC[P+](CO)(CO)CO,0.4251118412
A-5210,"N,N,N',N'-tetrakis(2-hydroxypropyl)hexanediamide",UUCAVBDCVCFNIN-UHFFFAOYSA-N,CC(O)CN(CC(C)O)C(=O)CCCCC(=O)N(CC(C)O)CC(C)O,0.2109933627
A-5211,3-sulfanylpropanoic acid,DKIDEFUBRARXTE-UHFFFAOYSA-N,OC(=O)CCS,0.754917543
A-5213,methyl L-serinate hydrochloride,NDBQJIBNNUJNHA-UHFFFAOYSA-N,[H+].[Cl-].COC(=O)C(N)CO,0.5774207675
A-5214,"(3S)-3-hydroxy-4,4-dimethyloxolan-2-one",SERHXTVXHNVDKA-UHFFFAOYSA-N,CC1(C)COC(=O)C1O,0.6515307225
A-5215,sodium; 4-(5-chloro-2-oxido-4-sulfamoylphenyl)diazenyl-5-methyl-2-phenylpyrazol-3-olate; chromium(+3) cation,MTEWSKPSJGGDQE-UHFFFAOYSA-J,[Na+].[Cr+3].Cc1nn(c([O-])c1N=Nc2cc(Cl)c(cc2[O-])[S](N)(=O)=O)c3ccccc3.Cc4nn(c([O-])c4N=Nc5cc(Cl)c(cc5[O-])[S](N)(=O)=O)c6ccccc6,-2.6924708965
A-5216,2-({2-[2-(dimethylamino)ethoxy]ethyl}(methyl)amino)ethan-1-ol,NCUPDIHWMQEDPR-UHFFFAOYSA-N,CN(C)CCOCCN(C)CCO,0.4764657364
A-5217,aminoformonitrile,XZMCDFZZKTWFGF-UHFFFAOYSA-N,NC#N,1.1245149893
A-5218,1-(2-aminoethyl)imidazolidin-2-one,PODSUMUEKRUDEI-UHFFFAOYSA-N,NCCN1CCNC1=O,0.6335459397
A-5219,"tetrasodium 4-amino-5-hydroxy-3,6-bis[(E)-2-{4-[2-(sulfonatooxy)ethanesulfonyl]phenyl}diazen-1-yl]naphthalene-2,7-disulfonate",FWKNDLPEBIXZRV-FXJKTVKKSA-J,[Na+].[Na+].[Na+].[Na+].Nc1c(N=Nc2ccc(cc2)[S](=O)(=O)CCO[S]([O-])(=O)=O)c(cc3C=C(/C(=N/Nc4ccc(cc4)[S](=O)(=O)CCO[S]([O-])(=O)=O)C(=O)c13)[S]([O-])(=O)=O)[S]([O-])(=O)=O,-0.2552865172
A-5225,"benzyldimethyl(2-{2-[4-(2,4,4-trimethylpentan-2-yl)phenoxy]ethoxy}ethyl)azanium chloride",UREZNYTWGJKWBI-UHFFFAOYSA-M,[Cl-].CC(C)(C)CC(C)(C)c1ccc(OCCOCC[N+](C)(C)Cc2ccccc2)cc1,0.0729096485
A-5226,"(2R)-2,4-dihydroxy-N-(3-hydroxypropyl)-3,3-dimethylbutanamide",SNPLKNRPJHDVJA-ZETCQYMHSA-N,CC(C)(CO)[C@@H](O)C(=O)NCCCO,0.3944261529
A-5227,"(3-{3,5-bis[3-(dimethylamino)propyl]-1,3,5-triazinan-1-yl}propyl)dimethylamine",FZQMJOOSLXFQSU-UHFFFAOYSA-N,CN(C)CCCN1CN(CCCN(C)C)CN(CCCN(C)C)C1,0.1642130702
A-5228,Chromium acetate,YETKGQMGLZKKGE-UHFFFAOYSA-M,[Cr].CC([O-])=O,0.6534905512
A-5229,"(2R,3R,4R,5R)-hexane-1,2,3,4,5,6-hexol; (2S,3S,4S,5S,6R)-6-{[(2S,3S,4R,5S,6R)-2-carboxy-4,5,6-trihydroxyoxan-3-yl]oxy}-3,4,5-trihydroxyoxane-2-carboxylic acid; [(2S,3R,4R,5S,6S)-3-hydroxy-6-{[(2S,3R,4R,5S,6S)-3-hydroxy-6-{[(2S,3R,4R,5S,6S)-6-{[(2S,3R,4R,5S,6S)-3-hydroxy-6-{[(2S,3R,4R,5S,6R)-6-hydroxy-2-methyl-4,5-bis(sulfooxy)oxan-3-yl]oxy}-2-methyl-5-(sulfooxy)oxan-4-yl]oxy}-2-methyl-4,5-bis(sulfooxy)oxan-3-yl]oxy}-2-methyl-5-(sulfooxy)oxan-4-yl]oxy}-2-methyl-5-(sulfooxy)oxan-4-yl]oxidanesulfonic acid",DFKXEMWEDROUAD-VNAFSSMTSA-N,C[C@@H]1O[C@@H](O[C@@H]2[C@H](C)O[C@@H](O)[C@@H](O[S](O)(=O)=O)[C@@H]2O[S](O)(=O)=O)[C@@H](O[S](O)(=O)=O)[C@H](O[C@@H]3O[C@@H](C)[C@@H](O[C@@H]4O[C@@H](C)[C@@H](O)[C@@H](O[C@@H]5O[C@@H](C)[C@@H](O)[C@@H](O[S](O)(=O)=O)[C@@H]5O[S](O)(=O)=O)[C@@H]4O[S](O)(=O)=O)[C@@H](O[S](O)(=O)=O)[C@@H]3O[S](O)(=O)=O)[C@@H]1O.OC[C@@H](O)[C@@H](O)[C@H](O)[C@H](O)CO.O[C@@H]6O[C@@H]([C@@H](O[C@@H]7O[C@@H]([C@@H](O)[C@H](O)[C@@H]7O)C(O)=O)[C@H](O)[C@@H]6O)C(O)=O,-0.5892058636
A-5230,1-[bis(2-hydroxypropyl)amino]propan-2-ol,SLINHMUFWFWBMU-UHFFFAOYSA-N,CC(O)CN(CC(C)O)CC(C)O,0.4173208759
A-5231,"2,6-diaminohexanoic acid hydrochloride",BVHLGVCQOALMSV-JEDNCBNOSA-N,[Cl-].NCCCC[C@H](N)C(O)=O.[H+],0.4373479501
A-5232,2-acrylamido-2-methylpropanesulphonic acid,FWFUWXVFYKCSQA-UHFFFAOYSA-M,[Na+].CC(C)(C[S]([O-])(=O)=O)NC(=O)C=C,0.3386928662
A-5233,"3,5-dimethyl-1,2-dioxolane-3,5-diol",ODQWDBNAMVRLSR-UHFFFAOYSA-N,CC1(O)CC(C)(O)OO1,0.5714408419
A-5234,"3,6,9,12-tetraazatetradecane-1,14-diamine",LSHROXHEILXKHM-UHFFFAOYSA-N,NCCNCCNCCNCCNCCN,0.3327787326
A-5235,"N,N-dimethyl-N'-(2,2,6,6-tetramethylpiperidin-4-yl)propane-1,3-diamine",QYNFXDVIHNENBG-UHFFFAOYSA-N,CN(C)CCCNC1CC(C)(C)NC(C)(C)C1,0.316191362
A-5236,nickel bis(dihydrogen phosphate),LCFKXCNZLIBDOX-UHFFFAOYSA-L,[Ni++].O[P](O)([O-])=O.O[P](O)([O-])=O,0.2964249182
A-5237,"sodium 1,4-bis(2-methylpropoxy)-1,4-dioxobutane-2-sulfonate",NTWXWSVUSTYPJH-UHFFFAOYSA-M,[Na+].CC(C)COC(=O)CC(C(=O)OCC(C)C)[S]([O-])(=O)=O,0.1773743212
A-5238,"sodium 1,4-bis[(4-methylpentan-2-yl)oxy]-1,4-dioxobutane-2-sulfonate",BTJYKXPSPBJJDQ-UHFFFAOYSA-M,[Na+].CC(C)CC(C)OC(=O)CC(C(=O)OC(C)CC(C)C)[S]([O-])(=O)=O,0.1096259345
A-5239,sodium 2-ethylhexyl sulfate,DGSDBJMBHCQYGN-UHFFFAOYSA-M,[Na+].CCCCC(CC)CO[S]([O-])(=O)=O,0.3329637961
A-5240,sodium propanoate,JXKPEJDQGNYQSM-UHFFFAOYSA-M,[Na+].CCC([O-])=O,0.716422901
A-5241,"trisodium 4-[(E)-2-{4-[(4-nitro-2-sulfophenyl)amino]phenyl}diazen-1-yl]-6-[(E)-2-{4-[(E)-2-{4-[(4-nitro-2-sulfophenyl)amino]phenyl}diazen-1-yl]-5-sulfonatonaphthalen-1-yl}diazen-1-yl]benzene-1,3-bis(olate)",KYKONKUSIIGFJP-QJRWVWFOSA-K,[Na+].[Na+].[Na+].OC1=CC(=O)\C(C=C1N=Nc2ccc(N=Nc3ccc(Nc4ccc(cc4[S]([O-])(=O)=O)[N+]([O-])=O)cc3)c5c2cccc5[S]([O-])(=O)=O)=N/Nc6ccc(Nc7ccc(cc7[S]([O-])(=O)=O)[N+]([O-])=O)cc6,-0.3225773366
A-5242,"3-(aminomethyl)-3,5,5-trimethylcyclohexan-1-amine",ZBVBXDSQFYHMPD-UHFFFAOYSA-N,Cc1ccc(cc1)[S](O)(=O)=O.CC2(C)CC(N)CC(C)(CN)C2,0.1572981869
A-5243,sodium prop-2-enoate,NNMHYFLPFNGQFZ-UHFFFAOYSA-M,[Na+].[O-]C(=O)C=C,0.7150841112
A-5244,"2-hydroxy-N,N,N-trimethylethanaminium hydroxide",KIZQNNOULOCVDM-UHFFFAOYSA-M,[OH-].C[N+](C)(C)CCO,0.6032053211
A-5245,"potassium sodium 7-{3-[(E)-2-{4-[(E)-2-(2-hydroxynaphthalen-1-yl)diazen-1-yl]phenyl}diazen-1-yl]benzenesulfonamido}naphthalene-1,3-disulfonate",UFYJXIFCPOCDND-UHFFFAOYSA-L,[Na+].[K+].Oc1ccc2ccccc2c1N=Nc3ccc(cc3)N=Nc4cccc(c4)[S](=O)(=O)Nc5ccc6cc(cc(c6c5)[S]([O-])(=O)=O)[S]([O-])(=O)=O,-1.2096462437
A-5246,"2,2,4-trimethylhexane-1,6-diamine",JCUZDQXWVYNXHD-UHFFFAOYSA-N,CC(CCN)CC(C)(C)CN,0.4781562173
A-5247,sodium octyl sulfate,WFRKJMRGXGWHBM-UHFFFAOYSA-M,[Na+].CCCCCCCCO[S]([O-])(=O)=O,0.2872063056
A-5248,"N-ethyl-4'-{[4-(ethylamino)-2-methylphenyl][4-(ethylimino)-3-methylcyclohexa-2,5-dien-1-ylidene]methyl}-3-methylbiphenyl-2-amine acetate",ULVODSYPARVTIB-UHFFFAOYSA-N,CCNc1ccc(cc1C)C(c2ccc(NCC)c(C)c2)=C3C=CC(=NCC)C(=C3)C.CC(O)=O,-1.0232212865
A-5249,(3-dodecanamidopropyl)trimethylazanium methyl sulfate,LTERAWRIKDPXBF-UHFFFAOYSA-N,CCCCCCCCCCCC(=O)NCCC[N+](C)(C)C.CO[S]([O-])(=O)=O,-0.011381165
A-5251,sodium 2-butyloctyl sulfate,QHVJMQSXCDOHMT-UHFFFAOYSA-M,[Na+].CCCCCCC(CCCC)CO[S]([O-])(=O)=O,0.142087324
A-5253,"pentasodium 7-(2-{4-[(4-{[5-amino-4-sulfonato-2-(2-{4-[2-(sulfonatooxy)ethanesulfonyl]phenyl}diazen-1-yl)phenyl]amino}-6-chloro-1,3,5-triazin-2-yl)amino]-2-(carbamoylamino)phenyl}diazen-1-yl)naphthalene-1,3,6-trisulfonate",TWIRQKNQTOUPOY-UHFFFAOYSA-I,[Na+].[Na+].[Na+].[Na+].[Na+].NC(=O)Nc1cc(Nc2nc(Cl)nc(Nc3cc(N)c(cc3N=Nc4ccc(cc4)[S](=O)(=O)CCO[S]([O-])(=O)=O)[S]([O-])(=O)=O)n2)ccc1N=Nc5cc6c(cc(cc6[S]([O-])(=O)=O)[S]([O-])(=O)=O)cc5[S]([O-])(=O)=O,-0.5105575438
A-5254,hexasodium 4-hydroxy-7-[({5-hydroxy-7-sulfonato-6-[(E)-2-{2-sulfonato-4-[(E)-2-(4-sulfonatophenyl)diazen-1-yl]phenyl}diazen-1-yl]naphthalen-2-yl}carbamoyl)amino]-3-[(E)-2-{2-sulfonato-4-[(E)-2-(4-sulfonatophenyl)diazen-1-yl]phenyl}diazen-1-yl]naphthalene-2-sulfonate,LDCKXVAPQFUIOI-ZFLDVXHKSA-H,[Na+].[Na+].[Na+].[Na+].[Na+].[Na+].[O-][S](=O)(=O)c1ccc(cc1)N=Nc2ccc(N\N=C\3C(=O)c4ccc(NC(=O)Nc5ccc6C(=O)C(=N/Nc7ccc(cc7[S]([O-])(=O)=O)N=Nc8ccc(cc8)[S]([O-])(=O)=O)\C(=Cc6c5)[S]([O-])(=O)=O)cc4C=C3[S]([O-])(=O)=O)c(c2)[S]([O-])(=O)=O,-0.5694985454
A-5255,lithium dodecyl sulfate,YFVGRULMIQXYNE-UHFFFAOYSA-M,[Li+].CCCCCCCCCCCCO[S]([O-])(=O)=O,0.10896299
A-5256,sodium decyl sulfate,XZTJQQLJJCXOLP-UHFFFAOYSA-M,[Na+].CCCCCCCCCCO[S]([O-])(=O)=O,0.1029880533
A-5257,"potassium [[N,N'-ethylenebis[N-(carboxymethyl)glycinato]](4-)-N,N',O,O',ON,ON']ferrate(1-)",ZXSCVYQKZLXHBR-UHFFFAOYSA-J,[K+].[Fe+3].[O-]C(=O)CN(CCN(CC([O-])=O)CC([O-])=O)CC([O-])=O,-0.0920128034
A-5258,2-[(9Z)-N-methyloctadec-9-enamido]acetic acid; 2-[bis(2-hydroxyethyl)amino]ethan-1-ol,FUUGOUJDTGRGMR-GMFCBQQYSA-N,CCCCCCCC\C=C/CCCCCCCC(=O)N(C)CC(O)=O.OCCN(CCO)CCO,0.7757804055
A-5260,2-hydroxyacetic acid,AEMRFAOFKBGASW-UHFFFAOYSA-N,OCC(O)=O,0.5960163257
A-5261,"N,N-dimethylimidodicarbonimidic diamide hydrochloride",OETHQSJEHLVLGH-UHFFFAOYSA-N,[H+].[Cl-].CN(C)C(=N)N=C(N)N,0.257987497
A-5262,"2,2',2''-nitrilotriacetonitrile",LJAIDEYQVIJERM-UHFFFAOYSA-N,N#CCN(CC#N)CC#N,-1.6475578342
A-5263,potassium (Z)-N-methyl-N-(1-oxo-9-octadecenyl)aminoacetate,XNDDBWAGMIMDPB-GMFCBQQYSA-M,[K+].CCCCCCCC\C=C/CCCCCCCC(=O)N(C)CC([O-])=O,-0.1215920041
A-5264,propan-2-yl acetate,JMMWKPVZQRWMSS-UHFFFAOYSA-N,CC(C)OC(C)=O,-0.5467680909
A-5265,2-[(acetyloxy)methyl]prop-2-en-1-yl acetate,FKAKGSJLTBVQOP-UHFFFAOYSA-N,CC(=O)OCC(=C)COC(C)=O,-0.7796166704
A-5266,"O,O-bis(2-methylphenyl) hydrogen dithiophosphate",DFVPPGZSXADRCW-UHFFFAOYSA-N,Cc1ccccc1O[P](S)(=S)Oc2ccccc2C,-1.0605299646
A-5267,2-[3-(4-propylheptyl)morpholin-4-yl]ethan-1-ol hydrochloride,QSFOWAYMMZCQNF-UHFFFAOYSA-N,CCCC(CCC)CCCC1COCCN1CCO,0.9642581623
A-5268,"Ethanesulfonic acid, 2-(methylamino)-, N-coco acyl derivs., sodium salts",KKDONKAYVYTWGY-UHFFFAOYSA-M,[Na+].CNCC[S]([O-])(=O)=O,0.1906881396
A-5270,aluminium trititanium dodecachloride,ZMKAVICCBWPNSR-UHFFFAOYSA-G,[Al+3].[Cl-].[Cl-].[Cl-].[Cl-].[Cl-].[Cl-].[Cl-].[Ti+4],-0.1112894041
A-5273,"disodium 1-amino-9,10-dioxo-4-({3-[2-(sulfonatooxy)ethanesulfonyl]phenyl}amino)-9,10-dihydroanthracene-2-sulfonate",KUIXZSYWBHSYCN-UHFFFAOYSA-L,[Na+].[Na+].Nc1c2C(=O)c3ccccc3C(=O)c2c(Nc4cccc(c4)[S](=O)(=O)CCO[S]([O-])(=O)=O)cc1[S]([O-])(=O)=O,-0.4545358261
A-5274,"1,4:3,6-dianhydro-D-glucitol",KLDXJTOLSGUMSJ-JGWLITMVSA-N,O[C@@H]1CO[C@@H]2[C@@H](O)CO[C@H]12,1.1774501829
A-5276,[4-(aminomethyl)phenyl]methanamine,ISKQADXMHQSTHK-UHFFFAOYSA-N,NCc1ccc(CN)cc1,1.1750718055
A-5277,"(3R,3aR,6S,6aR)-3,6-dimethoxy-hexahydrofuro[3,2-b]furan",MEJYDZQQVZJMPP-UHFFFAOYSA-N,COC1COC2C(COC12)OC,1.0599918174
A-5278,"disodium 2-(1,3-dioxo-2,3-dihydro-1H-inden-2-yl)quinoline-6,8-disulfonate",FZUOVNMHEAPVBW-UHFFFAOYSA-L,[Na+].[Na+].[O-][S](=O)(=O)c1cc2ccc(nc2c(c1)[S]([O-])(=O)=O)C3C(=O)c4ccccc4C3=O,-0.3778369537
A-5279,ammonium 4-(acetoacetylamino)-5-methoxy-2-methylbenzenesulfonate,ZPDRZMNAFLBUOA-UHFFFAOYSA-N,[NH4+].COc1cc(c(C)cc1NC(=O)CC(C)=O)[S]([O-])(=O)=O,-0.2018762227
A-5280,"tetrasodium 5-[(E)-2-{2,4-dihydroxy-5-[(E)-2-{4-[(4-nitro-2-sulfonatophenyl)amino]phenyl}diazen-1-yl]phenyl}diazen-1-yl]-4-hydroxy-3-[(E)-2-{4-[(4-nitro-2-sulfonatophenyl)amino]phenyl}diazen-1-yl]naphthalene-2,7-disulfonate",YEYRLCHTGWGSQF-UHFFFAOYSA-J,[Na+].[Na+].[Na+].[Na+].Oc1cc(O)c(cc1N=Nc2ccc(Nc3ccc(cc3[S]([O-])(=O)=O)[N+]([O-])=O)cc2)N=Nc4cc(cc5cc(c(N=Nc6ccc(Nc7ccc(cc7[S]([O-])(=O)=O)[N+]([O-])=O)cc6)c(O)c45)[S]([O-])(=O)=O)[S]([O-])(=O)=O,-0.7667514499
A-5281,disodium 8-(phenylamino)-5-[(E)-2-{4-[(E)-2-(3-sulfonatophenyl)diazen-1-yl]naphthalen-1-yl}diazen-1-yl]naphthalene-1-sulfonate,XPRMZBUQQMPKCR-UHFFFAOYSA-L,[Na+].[Na+].[O-][S](=O)(=O)c1cccc(c1)N=Nc2ccc(N=Nc3ccc(Nc4ccccc4)c5c3cccc5[S]([O-])(=O)=O)c6ccccc26,-0.5325397259
A-5282,bis(3-aminopropyl)(dodecyl)amine,NYNKJVPRTLBJNQ-UHFFFAOYSA-N,CCCCCCCCCCCCN(CCCN)CCCN,-0.1977113735
A-5283,"tris(tris(2-hydroxyethyl)azanium) 2-(cyanoamino)-5-{2-[4-({4-[2-(6,8-disulfonatonaphthalen-2-yl)diazen-1-yl]-2-methoxyphenyl}carbamoyl)phenyl]diazen-1-yl}-6-hydroxypyrimidin-4-olate",ZVINZNDATUGYAW-UHFFFAOYSA-N,COc1cc(ccc1NC(=O)c2ccc(cc2)N=Nc3c(O)nc(NC#N)nc3[O-])N=Nc4ccc5cc(cc(c5c4)[S]([O-])(=O)=O)[S]([O-])(=O)=O.OCC[NH+](CCO)CCO.OCC[NH+](CCO)CCO.OCC[NH+](CCO)CCO,-0.8216489824
A-5284,"sodium 1,4-bis[(8-methylnonyl)oxy]-1,4-dioxobutane-2-sulfonate",XXIOSJPZBMCGGL-UHFFFAOYSA-M,[Na+].CC(C)CCCCCCCOC(=O)CC(C(=O)OCCCCCCCC(C)C)[S]([O-])(=O)=O,-0.4691061177
A-5285,"2,2'-diazene-1,2-diylbis(2-methylpropanimidamide) dihydrochloride",QMYCJCOPYOPWTI-UHFFFAOYSA-N,[H+].[Cl-].CC(C)(N=NC(C)(C)C(N)=N)C(N)=N,-0.1451393328
A-5290,(methoxymethyl)(triphenyl)phosphonium chloride,SJFNDMHZXCUXSA-UHFFFAOYSA-M,[Cl-].COC[P+](c1ccccc1)(c2ccccc2)c3ccccc3,0.5063442706
A-5291,hydrogen tetrachlorogolduide,WPEJSSRSFRWYJB-UHFFFAOYSA-K,[NH4+].[Cl-].[Cl-].[Cl-].[Cl-].[Au+3],0.4889459305
A-5293,calcium phosphonate,OMAAXMJMHFXYFY-UHFFFAOYSA-L,[Ca++].[O-][PH]([O-])=O,0.9487769325
A-5295,tetraamminepalladium(2+) diacetate,WSHXNSFLJBJEGA-UHFFFAOYSA-L,N.N.N.N.[Pd++].CC([O-])=O.CC([O-])=O,0.5414259625
A-5299,3-hydroxy-2-(hydroxymethyl)-2-methylpropanal,CBIFNLUPCWCNQT-UHFFFAOYSA-N,CC(CO)(CO)C=O,0.9289333763
A-5300,(2-aminoethyl)({2-[(2-aminoethyl)amino]ethyl})amine; tris(2-aminoethyl)amine,KOJAIESBSPUXIB-UHFFFAOYSA-N,NCCNCCNCCN.NCCN(CCN)CCN,0.5339097655
A-5301,(2-aminoethyl)[2-({2-[(2-aminoethyl)amino]ethyl}amino)ethyl]amine; bis(2-aminoethyl)({2-[(2-aminoethyl)amino]ethyl})amine,FQBUBHQWFYTJPE-UHFFFAOYSA-N,NCCNCCNCCNCCN.NCCNCCN(CCN)CCN,0.4218033312
A-5303,(3-aminopropyl)dimethylamine,IUNMPGNGSSIWFP-UHFFFAOYSA-N,CN(C)CCCN,0.9906298514
A-5304,(3-{[(ethylimino)methylidene]amino}propyl)dimethylamine hydrochloride,FDXPUDRRFDHONO-UHFFFAOYSA-N,[Cl-].CCN(CCC[NH+](C)C)C#N,0.7173642944
A-5305,"(5-ethyl-1,3-dioxan-5-yl)methanol",BGFBWRWYROQISE-UHFFFAOYSA-N,CCC1(CO)COCOC1,0.8350942171
A-5307,"9,9-dimethyldecanoic acid",FZUWYUIYVKESIP-UHFFFAOYSA-N,CC(C)(C)CCCCCCCC(O)=O,-2.1113969493
A-5308,"1,3-dimethyltetrahydropyrimidin-2(1H)-one",GUVUOGQBMYCBQP-UHFFFAOYSA-N,CN1CCCN(C)C1=O,0.8921966739
A-5310,"1,4-diazabicyclo[2.2.2]octan-2-ylmethanol",MPJZCYUPWINKPK-UHFFFAOYSA-N,OCC1CN2CCN1CC2,0.8470942954
A-5311,"1,4-dimethylpiperazine",RXYPXQSKLGGKOL-UHFFFAOYSA-N,CN1CCN(C)CC1,0.9423643206
A-5312,1-ethoxy-2-(2-methoxyethoxy)ethane,CNJRPYFBORAQAU-UHFFFAOYSA-N,CCOCCOCCOC,0.8291459355
A-5313,1-ethylpyrrolidin-2-one,ZFPGARUNNKGOBB-UHFFFAOYSA-N,CCN1CCCC1=O,0.9463070612
A-5314,1-hydroxypropan-2-yl prop-2-enoate 2-hydroxypropyl prop-2-enoate,QZPSOSOOLFHYRR-UHFFFAOYSA-N,OCCCOC(=O)C=C,0.8855791863
A-5315,1-methyl-1H-imidazole,MCTWTZJPVLRJOU-UHFFFAOYSA-N,Cn1ccnc1,1.0856251051
A-5316,1-{bis[3-(dimethylamino)propyl]amino}propan-2-ol,NWDRKFORNVPWLY-UHFFFAOYSA-N,CC(O)CN(CCCN(C)C)CCCN(C)C,0.6101059749
A-5317,"2,2'-oxydiethanamine",GXVUZYLYWKWJIM-UHFFFAOYSA-N,NCCOCCN,0.9823282162
A-5318,"2,5,8,11,14-pentaoxapentadecane",ZUHZGEOKBKGPSW-UHFFFAOYSA-N,COCCOCCOCCOCCOC,0.6530976581
A-5319,"2,5,8,11-tetraoxadodecane",YFNKIDBQEZZDLK-UHFFFAOYSA-N,COCCOCCOCCOC,0.7490240663