ID,Name,InChIKey,SMILES,Solubility
A-1092,"7-{[4,5-dihydroxy-6-(hydroxymethyl)-3-[(3,4,5-trihydroxy-6-methyloxan-2-yl)oxy]oxan-2-yl]oxy}-5-hydroxy-2-(3-hydroxy-4-methoxyphenyl)-3,4-dihydro-2H-1-benzopyran-4-one",ARGKVCXINMKCAZ-UZRWAPQLSA-N,COc1ccc(cc1O)[C@@H]2CC(=O)c3c(O)cc(O[C@@H]4O[C@H](CO)[C@@H](O)[C@H](O)[C@H]4O[C@@H]5O[C@@H](C)[C@H](O)[C@@H](O)[C@H]5O)cc3O2,-5.1858488331
A-1093,dicerium(3+) ion tricarbonate,GHLITDDQOMIBFS-UHFFFAOYSA-H,[Ce+3].[Ce+3].[O-]C([O-])=O.[O-]C([O-])=O.[O-]C([O-])=O,-5.0664023631
A-1094,2-ethylhexyl acetate,WOYWLLHHWAMFCB-UHFFFAOYSA-N,CCCCC(CC)COC(C)=O,-4.6451400046
A-1095,2-methyldecanenitrile,XPCSGXMQGQGBKU-UHFFFAOYSA-N,CCCCCCCCC(C)C#N,-4.6324209502
A-1096,"5-[(4-chloro-2-nitrophenyl)diazenyl]-1-ethyl-6-hydroxy-4-methyl-2-oxo-1,2-dihydropyridine-3-carbonitrile",PJLZYPHMHUHUMN-CPNJWEJPSA-N,CCN1C(=O)C(=N/Nc2ccc(Cl)cc2[N+]([O-])=O)/C(=C(C#N)C1=O)C,-4.96733793
A-1097,6-methylhept-1-ene,DFVOXRAAHOJJBN-UHFFFAOYSA-N,CC(C)CCCC=C,-4.458990177
A-1098,"6-chloro-5-(2-chloroethyl)-2,3-dihydro-1H-indol-2-one",ZTQQXEPZEYIVDK-UHFFFAOYSA-N,ClCCc1cc2CC(=O)Nc2cc1Cl,-4.7775740697
A-1099,bis(2-butoxyethyl) adipate,IHTSDBYPAZEUOP-UHFFFAOYSA-N,CCCCOCCOC(=O)CCCCC(=O)OCCOCCCC,-4.9587331394
A-1100,"1,1'-ethane-1,1-diyldibenzene",BSZXAFXFTLXUFV-UHFFFAOYSA-N,CC(c1ccccc1)c2ccccc2,-4.6925039386
A-1101,1-benzyl-2-methylbenzene; 1-benzyl-3-methylbenzene; 1-benzyl-4-methylbenzene,PQTAUFTUHHRKSS-UHFFFAOYSA-N,Cc1ccccc1Cc2ccccc2,-4.6925039386
A-1104,dineodymium(3+) ion tricarbonate,UTWHRPIUNFLOBE-UHFFFAOYSA-H,[Nd+3].[Nd+3].[O-]C([O-])=O.[O-]C([O-])=O.[O-]C([O-])=O,-5.1084204387
A-1105,"17-Hydroxy-19-norpregn-4-ene-3,20-dione 17-acetate",MTSLFKWJINJVBO-ZCPXKWAGSA-N,CC(=O)O[C@@]1(CC[C@H]2[C@@H]3CCC4=CC(=O)CC[C@@H]4[C@H]3CC[C@]12C)C(C)=O,-4.9957539374
A-1106,"2,5-dianilinoterephthalic acid",ZJQZWNLKRBUEKX-UHFFFAOYSA-N,OC(=O)c1cc(Nc2ccccc2)c(cc1Nc3ccccc3)C(O)=O,-4.9857232877
A-1107,benzyl (2E)-3-phenylprop-2-enoate,NGHOLYJTSCBCGC-VAWYXSNFSA-N,O=C(OCc1ccccc1)/C=C/c2ccccc2,-4.8207960263
A-1110,"4,6-di(phenyl)-5H-1,3,5-triazin-2-one",KODLDJGSBFMSDG-UHFFFAOYSA-N,O=C1N=C(NC(=N1)c2ccccc2)c3ccccc3,-5.4935852535
A-1111,digadolinium trioxide,CMIHHWBVHJVIGI-UHFFFAOYSA-N,[O--].[O--].[O--].[Gd+3].[Gd+3],-5.0152363724
A-1112,"1,5-dimethyl-1-vinylhex-4-en-1-yl 2-methylpropanoate",JZIARAQCPRDGAC-UHFFFAOYSA-N,CC(C)C(=O)OC(C)(CCC=C(C)C)C=C,-4.8105849842
A-1113,"(diphenylphosphoroso)(2,4,6-trimethylphenyl)methanone",VFHVQBAGLAREND-UHFFFAOYSA-N,Cc1cc(C)c(c(C)c1)C(=O)[P](=O)(c2ccccc2)c3ccccc3,-5.010576791
A-1114,"3-[(2-ethylhexanoyl)oxy]-2,2-dimethylpropyl 2-ethylhexanoate",GORMSINSWZJIKL-UHFFFAOYSA-N,CCCCC(CC)C(=O)OCC(C)(C)COC(=O)C(CC)CCCC,-5.0206378696
A-1115,titanium(4+) ion zirconium(4+) ion lead(2+) ion pentaoxidandiide,HFGPZNIAWCZYJU-UHFFFAOYSA-N,[O--].[O--].[O--].[O--].[O--].[Ti+4].[Zr+4].[Pb++],-5.0982221528
A-1116,"ethyl 2,2-dimethyl-3-(2-methylprop-1-en-1-yl)cyclopropane-1-carboxylate",VIMXTGUGWLAOFZ-UHFFFAOYSA-N,CCOC(=O)C1C(C=C(C)C)C1(C)C,-4.7652682741
A-1119,N-(4-carbamoylphenyl)-4-nitrobenzamide,FANLHXKNWWSLIG-UHFFFAOYSA-N,NC(=O)c1ccc(NC(=O)c2ccc(cc2)[N+]([O-])=O)cc1,-4.9367254155
A-1120,"1-(6-tert-butyl-1,1-dimethyl-2,3-dihydro-1H-inden-4-yl)ethan-1-one",IKTHMQYJOWTSJO-UHFFFAOYSA-N,CC(=O)c1cc(cc2c1CCC2(C)C)C(C)(C)C,-4.8708662082
A-1121,"N-(4-amino-3-methoxy-9,10-dioxo-9,10-dihydroanthracen-1-yl)-4-methylbenzene-1-sulfonamide",BXIGAWRFDMDLTL-UHFFFAOYSA-N,COc1cc(N[S](=O)(=O)c2ccc(C)cc2)c3C(=O)c4ccccc4C(=O)c3c1N,-5.1125700507
A-1122,2-[(3-carboxy-2-oxidonaphthalen-1-yl)diazenyl]-4-chloro-5-methylbenzenesulfonate;manganese(2+),FXKOYCHIRMCIOR-UHFFFAOYSA-L,[H+].[Mn++].Cc1cc(c(cc1Cl)N=Nc2c([O-])c(cc3ccccc23)C([O-])=O)[S]([O-])(=O)=O,-5.1704010781
A-1123,"2,5-bis[(4-methylphenyl)amino]terephthalic acid",FVLUGNOOEZYDNV-UHFFFAOYSA-N,Cc1ccc(Nc2cc(C(O)=O)c(Nc3ccc(C)cc3)cc2C(O)=O)cc1,-5.0705134819
A-1125,"(Z)-N-(4-chloro-2,5-dimethoxyphenyl)-3-hydroxynaphthalene-2-carboximidic acid",QIHKTBRNOLQDGQ-UHFFFAOYSA-N,COc1cc(NC(=O)c2cc3ccccc3cc2O)c(OC)cc1Cl,-5.0622701458
A-1126,2-ethylhexyl 2-methylprop-2-enoate,WDQMWEYDKDCEHT-UHFFFAOYSA-N,CCCCC(CC)COC(=O)C(C)=C,-4.8059741607
A-1127,3-(chloromethyl)heptane,WLVCBAMXYMWGLJ-UHFFFAOYSA-N,CCCCC(CC)CCl,-4.6808820955
A-1128,4-amino-N-(4-carbamoylphenyl)benzamide,FSPYMSUDIVFOHY-UHFFFAOYSA-N,NC(=O)c1ccc(NC(=O)c2ccc(N)cc2)cc1,-4.9156499936
A-1129,"Alcohols, C12-13",WWYHAQDAMPXWSI-UHFFFAOYSA-N,C.CCCCCCCCCCCCO,-4.8148101896
A-1132,10-(prop-2-enoyloxy)decyl prop-2-enoate,RHNJVKIVSXGYBD-UHFFFAOYSA-N,C=CC(=O)OCCCCCCCCCCOC(=O)C=C,-4.9608754545
A-1133,17-hydroxy-1-methylandrostan-3-one,UXYRZJKIQKRJCF-TZPFWLJSSA-N,C[C@H]1CC(=O)C[C@@H]2CC[C@H]3[C@@H]4CC[C@H](O)[C@@]4(C)CC[C@@H]3[C@@]12C,-5.0064289581
A-1134,"2,2,4,4-Tetramethyl-7-oxa-3,20-diazadispiro(5.1.11.2)heneicosan-21-one",IVVLFHBYPHTMJU-UHFFFAOYSA-N,CC1(C)CC2(CC(C)(C)N1)OC3(CCCCCCCCCCC3)NC2=O,-5.0846644385
A-1135,"2,4-bis(2-methylbutan-2-yl)phenol",WMVJWKURWRGJCI-UHFFFAOYSA-N,CCC(C)(C)c1ccc(O)c(c1)C(C)(C)CC,-4.892804854
A-1137,2-ethylhexyl 2-{[bis({2-[(2-ethylhexyl)oxy]-2-oxoethyl}sulfanyl)(methyl)stannyl]sulfanyl}acetate,ACRNSUGLVQJCOM-UHFFFAOYSA-K,CCCCC(CC)COC(=O)CS[Sn](C)(SCC(=O)OCC(CC)CCCC)SCC(=O)OCC(CC)CCCC,-5.3942922935
A-1139,oxydiethylene bis(chloroformate),XFSAZBKSWGOXRH-UHFFFAOYSA-N,ClC(=O)OCCOCCOC(Cl)=O,-4.8865490032
A-1140,tris[oxalato(2-)]dilutetium,WBXXVIQNIMIONY-UHFFFAOYSA-H,[Lu+3].[Lu+3].[O-]C(=O)C([O-])=O.[O-]C(=O)C([O-])=O.[O-]C(=O)C([O-])=O,-5.3110386285
A-1141,(3-phenoxyphenyl)methanol,KGANAERDZBAECK-UHFFFAOYSA-N,OCc1cccc(Oc2ccccc2)c1,-2.8258731416
A-1143,azacyclotridecan-2-one,JHWNWJKBPDFINM-UHFFFAOYSA-N,O=C1CCCCCCCCCCCN1,-2.8195043204
A-1144,methyl 3-phenylacrylate,CCRCUPLGCSFEDV-BQYQJAHWSA-N,COC(=O)\C=C\c1ccccc1,-2.7343475301
A-1145,"2-methyl-4,6-bis(methylsulfanyl)benzene-1,3-diamine; 4-methyl-2,6-bis(methylsulfanyl)benzene-1,3-diamine",TXDBDYPHJXUHEO-UHFFFAOYSA-N,CSc1cc(SC)c(N)c(C)c1N,-2.8569254583
A-1148,"4-allyl-1,2-dimethoxybenzene",NNWHUJCUHAELCL-SNAWJCMRSA-N,COc1ccc(\C=C\C)cc1OC,-2.7782267945
A-1149,2-methylquinolin-8-ol,NBYLBWHHTUWMER-UHFFFAOYSA-N,Cc1ccc2cccc(O)c2n1,-1.7306186153
A-1152,cobalt(2+) bis[3-(3-ethylcyclopentyl)propanoate],XSWKLHINRKWMTD-UHFFFAOYSA-L,[Co++].CCC1CCC(CCC([O-])=O)C1.CCC2CCC(CCC([O-])=O)C2,-3.1323831914
A-1153,"3-[2,2-dimethyl-3-(3-prop-2-enoyloxypropoxy)propoxy]propyl prop-2-enoate",NQGDHQASSFDDLD-UHFFFAOYSA-N,CC(C)(COCCCOC(=O)C=C)COCCCOC(=O)C=C,-3.0495421403
A-1154,pentyl formate,DIQMPQMYFZXDAX-UHFFFAOYSA-N,CCCCCOC=O,-1.6020599913
A-1155,"1,3-dimethyl benzene-1,3-dicarboxylate",VNGOYPQMJFJDLV-UHFFFAOYSA-N,COC(=O)c1cccc(c1)C(=O)OC,-2.825819918
A-1156,ethenylbenzene,PPBRXRYQALVLMV-UHFFFAOYSA-N,C=Cc1ccccc1,-2.5552696161
A-1157,hexyl 2-methylprop-2-enoate,LNCPIMCVTKXXOY-UHFFFAOYSA-N,CCCCCCOC(=O)C(C)=C,-3.7554210341
A-1158,"2,3,5,6-tetrachloropyridine",FATBKZJZAHWCSL-UHFFFAOYSA-N,Clc1cc(Cl)c(Cl)nc1Cl,-3.8614246907
A-1160,"4-naphthalen-2-yl-1,3-thiazol-2-amine",GWDNDNTTXIIXRS-UHFFFAOYSA-N,Nc1scc(n1)c2ccc3ccccc3c2,-4.849542252
A-1161,2-benzylheptan-1-ol,CGMOOAUESLSUKM-UHFFFAOYSA-N,CCCCCC(CO)Cc1ccccc1,-3.8432685623
A-1163,decanal,KSMVZQYAVGTKIV-UHFFFAOYSA-N,CCCCCCCCCC=O,-3.7255255026
A-1165,"(2E)-3,7-dimethylocta-2,6-dien-1-yl acetate",HIGQPQRQIQDZMP-DHZHZOJOSA-N,CC(=O)OC/C=C(C)/CCC=C(C)C,-3.8305001771
A-1167,"4,8-dimethyldeca-4,9-dienal",QVEOSYKPYFNQAZ-XYOKQWHBSA-N,CC(CC/C=C(C)/CCC=O)C=C,-3.7935760497
A-1168,"methyl 2,2,2-trifluoroacetate",VMVNZNXAVJHNDJ-UHFFFAOYSA-N,COC(=O)C(F)(F)F,-0.6479837034
A-1170,3-ethoxy-4-hydroxybenzaldehyde,CBOQJANXLMLOSS-UHFFFAOYSA-N,CCOc1cc(C=O)ccc1O,-1.7642022678
A-1172,4-phenylbutan-2-one,AKGGYBADQZYZPD-UHFFFAOYSA-N,CC(=O)CCc1ccccc1,-1.7160179957
A-1173,"N-(4-chloro-2,5-dimethoxyphenyl)-3-oxobutanamide",MOUVJGIRLPZEES-UHFFFAOYSA-N,COc1cc(NC(=O)CC(C)=O)c(OC)cc1Cl,-2.9792447784
A-1174,3-phenylprop-2-en-1-yl acetate,WJSDHUCWMSHDCR-VMPITWQZSA-N,CC(=O)OC\C=C\c1ccccc1,-2.7927245342
A-1177,"[2-[2-oxo-5-(2,4,4-trimethylpentan-2-yl)-3H-1-benzofuran-3-yl]-4-(2,4,4-trimethylpentan-2-yl)phenyl] acetate",UHPDROGOQWZCNC-UHFFFAOYSA-N,CC(=O)Oc1ccc(cc1C2C(=O)Oc3ccc(cc23)C(C)(C)CC(C)(C)C)C(C)(C)CC(C)(C)C,-6.6925825623
A-1179,2-hydroxypropanoic acid - 5-{[(2-ethylhexyl)carbamoyl]oxy}-2-methylphenyl [2-(dimethylamino)ethyl]carbamate (1:1) (non-preferred name),HYNJGJWCXRMUIG-UHFFFAOYSA-N,CCCCC(CC)COC(=O)Nc1ccc(C)c(NC(=O)OCCN(C)C)c1.CC(O)C(O)=O,-0.2351938248
A-1181,"2,6-dimethyloctan-2-ol",WRFXXJKURVTLSY-UHFFFAOYSA-N,CCC(C)CCCC(C)(C)O,-2.7493446847
A-1182,troclosene sodium,MSFGZHUJTJBYFA-UHFFFAOYSA-M,[Na+].ClN1C(=O)[N-]C(=O)N(Cl)C1=O,-0.8951600114
A-1185,3-amino-4-hydroxybenzene-1-sulfonic acid,ULUIMLJNTCECJU-UHFFFAOYSA-N,Nc1cc(ccc1O)[S](O)(=O)=O,-1.8297447369
A-1186,"11,17,21-trihydroxypregn-4-ene-3,20-dione",JYGXADMDTFJGBT-VWUMJDOOSA-N,C[C@]12CCC(=O)C=C1CC[C@H]3[C@@H]4CC[C@](O)(C(=O)CO)[C@@]4(C)C[C@H](O)[C@H]23,-3.1121092438
A-1188,octadec-9-enoic acid - 2-aminoethanol (1:1),KGWDUNBJIMUFAP-RRABGKBLSA-N,CCCCCCCC/C=C/CCCCCCCC(O)=O.NCCO,-3.0888344498
A-1193,"2-methyl-4-(2,2,3-trimethylcyclopent-3-en-1-yl)butan-1-ol",CYVGAJHMMVDTDZ-UHFFFAOYSA-N,CC(CO)CCC1CC=C(C)C1(C)C,-3.8427464064
A-1196,"N,N-dimethyldodecanamide",BDYUSDIJIDGWCY-UHFFFAOYSA-N,CCCCCCCCCCCC(=O)N(C)C,-3.9093070505
A-1197,4-tert-butylcyclohexan-1-ol,CCOQPGVQAWPUPE-UHFFFAOYSA-N,CC(C)(C)C1CCC(O)CC1,-3.1032621252
A-1199,"N,N-dimethyltetradecan-1-amine",SFBHPFQSSDCYSL-UHFFFAOYSA-N,CCCCCCCCCCCCCCN(C)C,-3.9356925608
A-1203,1-chloropropane,SNMVRZFUUCLYTO-UHFFFAOYSA-N,CCCCl,-1.4534068203
A-1204,"Phosphorodithioic acid, mixed O,O-bis(1,3-dimethylbutyl and iso-Pr) esters, zinc salts",ZLJYMIJYVMPKAH-UHFFFAOYSA-L,[Zn++].CC(C)CC(C)O[P]([S-])(=S)OC(C)C.CC(C)CC(C)O[P]([S-])(=S)OC(C)C,-2.3189749133
A-1205,1-chloro-3-nitrobenzene,KMAQZIILEGKYQZ-UHFFFAOYSA-N,[O-][N+](=O)c1cccc(Cl)c1,-2.7612722995
A-1206,1-(2-naphthyl)ethanone,XSAYZAUNJMRRIR-UHFFFAOYSA-N,CC(=O)c1ccc2ccccc2c1,-2.7964187192
A-1207,"disodium 4-amino-6-{2-[4-({4-[2-(2,4-diaminophenyl)diazen-1-yl]phenyl}sulfamoyl)phenyl]diazen-1-yl}-5-hydroxy-3-[2-(4-nitrophenyl)diazen-1-yl]naphthalene-2,7-disulfonate",UMXKOPCQCFDBHS-UHFFFAOYSA-L,[Na+].[Na+].Nc1ccc(N=Nc2ccc(N[S](=O)(=O)c3ccc(cc3)N=Nc4c(O)c5c(N)c(N=Nc6ccc(cc6)[N+]([O-])=O)c(cc5cc4[S]([O-])(=O)=O)[S]([O-])(=O)=O)cc2)c(N)c1,-0.5256786207
A-1209,"1,2-dichloropropane",KNKRKFALVUDBJE-UHFFFAOYSA-N,CC(Cl)CCl,-1.6216647134
A-1211,N-ethylaniline,OJGMBLNIHDZDGS-UHFFFAOYSA-N,CCNc1ccccc1,-1.6520779355
A-1212,"1,1'-oxybis(3-methylbutane)",AQZGPSLYZOOYQP-UHFFFAOYSA-N,CC(C)CCOCCC(C)C,-3.7601070667
A-1213,sodium 2-({2-amino-8-hydroxy-6-[(2-methylphenyl)sulfamoyl]-1-naphthyl}diazenyl)-5-[(chloroacetyl)amino]benzenesulfonate,NVRGYEUIJNZYKB-UHFFFAOYSA-M,[Na+].CN(c1ccccc1)[S](=O)(=O)C2=CC(=O)C3=C(NNc4ccc(NC(=O)CCl)cc4[S]([O-])(=O)=O)C(=N)C=CC3=C2,-4.3588570696
A-1214,"1,2-dichloro-4-methylbenzene",WYUIWKFIFOJVKW-UHFFFAOYSA-N,Cc1ccc(Cl)c(Cl)c1,-3.7755457257
A-1215,"4-amino-2,5-dimethoxy-N-phenylbenzenesulfonamide",NFYQAEPHDGXJSY-UHFFFAOYSA-N,COc1cc(c(OC)cc1N)[S](=O)(=O)Nc2ccccc2,-4.0576928644
A-1219,4-hydroxy-3-(3-oxo-1-phenylbutyl)-2H-chromen-2-one,QTXVAVXCBMYBJW-UHFFFAOYSA-N,CC(=O)CC(c1ccccc1)C2=C(O)Oc3ccccc3C2=O,-3.0625087471
A-1220,"(4-(4-aminophenyl)(4-iminocyclohexa-2,5-dienylidene)methyl)-2-methylaniline hydrochloride",AXDJCCTWPBKUKL-UHFFFAOYSA-N,[H+].[Cl-].CC1=CC(C=CC1=N)=C(c2ccc(N)cc2)c3ccc(N)cc3,-2.1054831912
A-1222,tris(2-methylpropyl) phosphate,HRKAMJBPFPHCSD-UHFFFAOYSA-N,CC(C)CO[P](=O)(OCC(C)C)OCC(C)C,-3.0021546468
A-1225,methyl 2-methylbenzoate,WVWZECQNFWFVFW-UHFFFAOYSA-N,COC(=O)c1ccccc1C,-1.7566476759
A-1226,2-methylprop-1-ene,VQTUBCCKSQIDNK-UHFFFAOYSA-N,CC(C)=C,-2.3290690398
A-1227,1-(acetyloxy)but-3-en-2-yl acetate,MWWXARALRVYLAE-QMMMGPOBSA-N,CC(=O)OC[C@@H](OC(C)=O)C=C,-0.8176814122
A-1228,3-aminophenol,CWLKGDAVCFYWJK-UHFFFAOYSA-N,Nc1cccc(O)c1,-0.6229628479
A-1231,"2-[2-ethoxy-5-(4-ethylpiperazin-1-yl)sulfonylphenyl]-5-methyl-7-propyl-1H-imidazo[5,1-f][1,2,4]triazin-4-one",SECKRCOLJRRGGV-UHFFFAOYSA-N,CCCc1nc(C)c2n1NC(=NC2=O)c3cc(ccc3OCC)[S](=O)(=O)N4CCN(CC)CC4,-4.8438678664
A-1232,(9E)-N-[3-(dimethylamino)propyl]octadec-9-enamide,UCWYGNTYSWIDSW-VAWYXSNFSA-N,CCCCCCCC/C=C/CCCCCCCC(=O)NCCCN(C)C,-4.1492593891
A-1233,"1,3-dichloro-2-methylbenzene",DMEDNTFWIHCBRK-UHFFFAOYSA-N,Cc1c(Cl)cccc1Cl,-3.7919361419
A-1234,cyclododecanone,SXVPOSFURRDKBO-UHFFFAOYSA-N,O=C1CCCCCCCCCCC1,-3.8458299965
A-1235,"3,7-dimethyloct-6-en-1-yn-3-ol",YWTIDNZYLFTNQQ-UHFFFAOYSA-N,CC(C)=CCCC(C)(O)C#C,-1.7720804309
A-1236,4-methyl-3-nitrobenzoic acid,BBEWSMNRCUXQRF-UHFFFAOYSA-N,Cc1ccc(cc1[N+]([O-])=O)C(O)=O,-2.8480980227
A-1237,3-amino-4-methoxybenzenesulfonic acid,FLIOATBXVNLPLK-UHFFFAOYSA-N,COc1ccc(cc1N)[S](O)(=O)=O,-0.8997243446
A-1239,"(3,4-dihydroxyphenyl)-phenylmethanone",ARWCZKJISXFBGI-UHFFFAOYSA-N,Oc1ccc(cc1O)C(=O)c2ccccc2,-2.9226200497
A-1240,"2-[(E)-2-{4-[ethyl(2-hydroxyethyl)amino]phenyl}diazen-1-yl]-6-methoxy-3-methyl-1,3-benzothiazol-3-ium acetate",BLZWSNCCDXVOPZ-UHFFFAOYSA-M,CCN(CCO)c1ccc(cc1)N=Nc2sc3cc(OC)ccc3[n+]2C.CC([O-])=O,-0.2262726911
A-1243,(4R)-4-methyl-2-propyloxan-4-yl acetate (4S)-4-methyl-2-propyloxan-4-yl acetate,TWUVPRFPARHRLV-URIZOGIISA-N,CCCC1C[C@](C)(CCO1)OC(C)=O.CCCC2C[C@@](C)(CCO2)OC(C)=O,-2.2047232328
A-1245,3-(aminomethyl)heptane,LTHNHFOGQMKPOV-UHFFFAOYSA-N,CCCCC(CC)CN,-1.7134804626
A-1246,3-chloro-4-methylaniline,RQKFYFNZSHWXAW-UHFFFAOYSA-N,Cc1ccc(N)cc1Cl,-1.7531263117
A-1247,"2-(2,4-dihydroxyphenyl)-3,5,7-trihydroxy-4H-chromen-4-one",YXOLAZRVSSWPPT-UHFFFAOYSA-N,Oc1ccc(c(O)c1)C2=C(O)C(=O)c3c(O)cc(O)cc3O2,-3.0824090581
A-1252,"4-[1,1-bis(4-hydroxyphenyl)ethyl]phenol",BRPSWMCDEYMRPE-UHFFFAOYSA-N,CC(c1ccc(O)cc1)(c2ccc(O)cc2)c3ccc(O)cc3,-4.086559757
A-1254,"2,4-dichloro-1-methylbenzene",FUNUTBJJKQIVSY-UHFFFAOYSA-N,Cc1ccc(Cl)cc1Cl,-3.8089694812
A-1255,"(4-methoxy-2,2-dimethyl-3a,4,6,6a-tetrahydrofuro[3,4-d][1,3]dioxol-6-yl)methyl 4-methylbenzenesulfonate",IAPMZKRZMYQZSW-UHFFFAOYSA-N,COC1OC(CO[S](=O)(=O)c2ccc(C)cc2)C3OC(C)(C)OC13,-4.1564425332
A-1256,1-methoxy-2-methylbenzene,DTFKRVXLBCAIOZ-UHFFFAOYSA-N,COc1ccccc1C,-2.6890833932
A-1258,"(2,4-dichlorophenyl)acetic acid",GXMWLJKTGBZMBH-UHFFFAOYSA-N,OC(=O)Cc1ccc(Cl)cc1Cl,-2.9191416399
A-1259,2-(chloromethyl)oxirane; 4-[2-(4-hydroxyphenyl)propan-2-yl]phenol,KUBDPQJOLOUJRM-UHFFFAOYSA-N,CC(C)(c1ccc(O)cc1)c2ccc(O)cc2.ClCC3CO3,-5.0291347649
A-1261,Zirconium propionate,TVCBSVKTTHLKQC-UHFFFAOYSA-M,[Zr+4].CCC([O-])=O,-2.8232791914
A-1263,4-chlorobenzonitrile,GJNGXPDXRVXSEH-UHFFFAOYSA-N,Clc1ccc(cc1)C#N,-2.749354496
A-1268,1-chloro-4-nitrobenzene,CZGCEKJOLUNIFY-UHFFFAOYSA-N,[O-][N+](=O)c1ccc(Cl)cc1,-2.8118286729
A-1269,4-(propan-2-yl)benzaldehyde,WTWBUQJHJGUZCY-UHFFFAOYSA-N,CC(C)c1ccc(C=O)cc1,-2.7852565821
A-1270,4-[(2-methylprop-2-enoyl)oxy]butyl 2-methylprop-2-enoate,XOJWAAUYNWGQAU-UHFFFAOYSA-N,CC(=C)C(=O)OCCCCOC(=O)C(C)=C,-2.969024542
A-1274,1-(3-chlorophenyl)propan-1-one,PQWGFUFROKIJBO-UHFFFAOYSA-N,CCC(=O)c1cccc(Cl)c1,-1.8467055699
A-1275,2-(phenoxymethyl)oxirane,FQYUMYWMJTYZTK-UHFFFAOYSA-N,C1OC1COc2ccccc2,-1.7963921827
A-1276,nonanedioic acid,BDJRBEYXGGNYIS-UHFFFAOYSA-N,OC(=O)CCCCCCCC(O)=O,-1.8944614494
A-1277,"1,6-dioxacycloheptadecan-7-one",MRMOPGVGWFNHIN-UHFFFAOYSA-N,O=C1CCCCCCCCCCOCCCCO1,-4.0179591997
A-1280,"3,7-dimethyloctanal",UCSIFMPORANABL-UHFFFAOYSA-N,CC(C)CCCC(C)CC=O,-3.8064830067
A-1286,"1,3-diphenylthiourea",FCSHMCFRCYZTRQ-UHFFFAOYSA-N,S=C(Nc1ccccc1)Nc2ccccc2,-3.9716884266
A-1287,"estr-5(10)-ene-3,17-dione",RORYLAUXKSWMQL-CBZIJGRNSA-N,C[C@]12CC[C@H]3[C@@H](CCC4=C3CCC(=O)C4)[C@@H]1CCC2=O,-4.0549767292
A-1288,1-bromopropane,CYNYIHKIEHGYOZ-UHFFFAOYSA-N,CCCBr,-1.7107562487
A-1289,1-chloro-4-methoxybenzene,YRGAYAGBVIXNAQ-UHFFFAOYSA-N,COc1ccc(Cl)cc1,-2.779325494
A-1290,Fluocortolone,GAKMQHDJQHZUTJ-ULHLPKEOSA-N,C[C@@H]1C[C@H]2[C@@H]3C[C@H](F)C4=CC(=O)C=C[C@]4(C)[C@H]3[C@@H](O)C[C@]2(C)[C@H]1C(=O)CO,-3.2037371554
A-1291,sodium 3-[(E)-2-[4-(phenylamino)phenyl]diazen-1-yl]benzene-1-sulfonate,NYGZLYXAPMMJTE-UHFFFAOYSA-M,[Na+].[O-][S](=O)(=O)c1cccc(c1)N=Nc2ccc(Nc3ccccc3)cc2,-1.2046860906
A-1292,"3-methyl-1,1-diphenylurea",IMFYAZJNDOZIFV-UHFFFAOYSA-N,CNC(=O)N(c1ccccc1)c2ccccc2,-2.9839461582
A-1293,biphenyl-2-amine,TWBPWBPGNQWFSJ-UHFFFAOYSA-N,Nc1ccccc1c2ccccc2,-2.8611137345
A-1294,1-{[bis(2-chloroethoxy)phosphoryl]oxy}-2-({[bis(2-chloroethoxy)phosphoryl]oxy}methyl)-3-chloro-2-(chloromethyl)propane,ZGHUDSLVQAGWEY-UHFFFAOYSA-N,ClCCO[P](=O)(OCCCl)OCC(CCl)(CCl)CO[P](=O)(OCCCl)OCCCl,-3.4001753553
A-1295,"cyclohexane-1,4-dicarboxylic acid",PXGZQGDTEZPERC-UHFFFAOYSA-N,OC(=O)C1CCC(CC1)C(O)=O,-0.8723707236
A-1298,2-(7-ethyl-1H-indol-3-yl)ethan-1-ol,UVSDNCAZVSQJQA-UHFFFAOYSA-N,CCc1cccc2c(CCO)c[nH]c12,-1.9153264103
A-1302,"3-(1-ethoxyethoxy)-3,7-dimethylocta-1,6-diene",ZJPKYCLAROITRY-UHFFFAOYSA-N,CCOC(C)OC(C)(CCC=C(C)C)C=C,-3.9764017843
A-1304,diphenylmethanone,RWCCWEUUXYIKHB-UHFFFAOYSA-N,O=C(c1ccccc1)c2ccccc2,-3.882202908
A-1305,1-cyclohexylethyl butanoate,FTMSYMOBBRINAR-UHFFFAOYSA-N,CCCC(=O)OC(C)C1CCCCC1,-3.9207588975
A-1306,"2-ethyl-3-hydroxy-2-[2-(6-methoxy-3,4-dihydronaphthalen-1(2H)-ylidene)ethyl]cyclopentanone",ZXYHLOFRRMDJAQ-UHFFFAOYSA-N,CCC1(CC=C2CCCc3cc(OC)ccc23)C(O)CCC1=O,-4.1227687236
A-1308,butylbenzene,ZJMWRROPUADPEA-UHFFFAOYSA-N,CCC(C)c1ccccc1,-3.7586078484
A-1309,"sodium 1-amino-4-[(3-acetamidophenyl)amino]-9,10-dioxo-9,10-dihydroanthracene-2-sulfonate",MIBVDSFVCOIWCC-UHFFFAOYSA-M,[Na+].CC(=O)Nc1cccc(Nc2cc(c(N)c3C(=O)c4ccccc4C(=O)c23)[S]([O-])(=O)=O)c1,-4.3079108614
A-1311,1-methyl-1-(4-methylcyclohex-3-en-1-yl)ethyl acetate,IGODOXYLBBXFDW-UHFFFAOYSA-N,CC(=O)OC(C)(C)C1CCC(=CC1)C,-3.931170339
A-1312,"3,7,11-trimethyldodeca-1,6,10-trien-3-ol,mixed isomers",FQTLCLSUCSAZDY-SDNWHVSQSA-N,CC(C)=CCC\C(C)=C\CCC(C)(O)C=C,-3.9853522661
A-1313,6-[(2-methylprop-2-enoyl)oxy]hexyl 2-methylprop-2-enoate,SAPGBCWOQLHKKZ-UHFFFAOYSA-N,CC(=C)C(=O)OCCCCCCOC(=O)C(C)=C,-4.0436629248
A-1315,4-(trifluoromethyl)aniline,ODGIMMLDVSWADK-UHFFFAOYSA-N,Nc1ccc(cc1)C(F)(F)F,-2.8473301434
A-1317,benzyltriethylazanium chloride,HTZCNXWZYVXIMZ-UHFFFAOYSA-M,[Cl-].CC[N+](CC)(CC)Cc1ccccc1,-0.0072656636
A-1322,disodium decanedioate,NCXUIEDQTCQZRK-UHFFFAOYSA-L,[Na+].[Na+].[O-]C(=O)CCCCCCCCC([O-])=O,-3.0410647254
A-1325,2-(2-butoxyethoxy)ethyl 2-methylprop-2-enoate,QGTBRAFPWNISIJ-UHFFFAOYSA-N,CCCCOCCOCCOC(=O)C(C)=C,-2.0159485066
A-1327,"4-[1,1,1,3,3,3-hexafluoro-2-(4-hydroxyphenyl)propan-2-yl]phenol",ZFVMWEVVKGLCIJ-UHFFFAOYSA-N,Oc1ccc(cc1)C(c2ccc(O)cc2)(C(F)(F)F)C(F)(F)F,-3.1795029693
A-1328,1-(naphthalen-1-yl)ethan-1-one,QQLIGMASAVJVON-UHFFFAOYSA-N,CC(=O)c1cccc2ccccc12,-2.8846346488
A-1329,4-(propan-2-yl)aniline,LRTFPLFDLJYEKT-UHFFFAOYSA-N,CC(C)c1ccc(N)cc1,-1.7858311962
A-1333,4-methoxyaniline,BHAAPTBBJKJZER-UHFFFAOYSA-N,COc1ccc(N)cc1,-0.7480293677
A-1334,pentan-1-ol,AMQJEAYHLZJPGS-UHFFFAOYSA-N,CCCCCO,-0.6027996358
A-1335,2-methoxy-5-nitroaniline,NIPDVSLAMPAWTP-UHFFFAOYSA-N,COc1ccc(cc1N)[N+]([O-])=O,-1.8832793564
A-1336,prop-2-en-1-yl 2-methylprop-2-enoate,FBCQUCJYYPMKRO-UHFFFAOYSA-N,CC(=C)C(=O)OCC=C,-1.7584817871
A-1337,"1,1,2,2,3,3,4,4-octafluoro-1,4-diiodobutane",JILAKKYYZPDQBE-UHFFFAOYSA-N,FC(F)(I)C(F)(F)C(F)(F)C(F)(F)I,-3.314476262
A-1339,"2,6-di-tert-butyl-4-(hydroxymethyl)phenol",HNURKXXMYARGAY-UHFFFAOYSA-N,CC(C)(C)c1cc(CO)cc(c1O)C(C)(C)C,-4.0127821042
A-1341,[2-(3-methylbutoxy)ethyl]benzene,BHQBQWOZHYUVTL-UHFFFAOYSA-N,CC(C)CCOCCc1ccccc1,-3.9337357827
A-1343,2-hydroxynaphthalene-1-carbaldehyde,NTCCNERMXRIPTR-UHFFFAOYSA-N,Oc1ccc2ccccc2c1C=O,-3.8935675896
A-1345,"5-nitropyrimidine-2,4,6-triamine",XLQQJSWJHHKLOK-UHFFFAOYSA-N,Nc1nc(N)c(N=O)c(N)n1,-3.8454729507
A-1346,"1,3-dichloroprop-1-ene",UOORRWUZONOOLO-UPHRSURJSA-N,ClC\C=C/Cl,-1.706753006
A-1347,4-[4-[[4-chloro-3-(trifluoromethyl)phenyl]carbamoylamino]phenoxy]-N-methylpyridine-2-carboxamide,MLDQJTXFUGDVEO-UHFFFAOYSA-N,CNC(=O)c1cc(Oc2ccc(NC(=O)Nc3ccc(Cl)c(c3)C(F)(F)F)cc2)ccn1,-6.6672950838
A-1348,2-methoxy-4-(methoxymethyl)phenol,USDDPDQEVLAOBO-UHFFFAOYSA-N,COCc1ccc(O)c(OC)c1,-1.8934476814
A-1349,3-pentyloxan-4-yl acetate,VSRVCSJJKWDZSH-UHFFFAOYSA-N,CCCCCC1COCCC1OC(C)=O,-2.9987958883