ID,Name,InChIKey,SMILES,Solubility
B-1899,benz(a)anthracene-7-methyl,DIIFUCUPDHMNIV-UHFFFAOYSA-N,Cc1c2ccccc2cc3c4ccccc4ccc13,-7.343
B-1900,"nonanoic acid, 9-oxo-",WLGDDELKYAWBBL-UHFFFAOYSA-N,OC(=O)CCCCCCCC=O,-0.9574
B-1901,"acetamide, 2,2-dichloro-n-phenyl-",KJSVAEGLTPBKAA-UHFFFAOYSA-N,ClC(Cl)C(=O)Nc1ccccc1,-3.3555
B-1902,"1,3-dioxolane, 2-ethyl-",WEBRDDDJKLAXTO-UHFFFAOYSA-N,CCC1OCCO1,0.2919
B-1903,"ethanediimidamide, n,n''-dihydroxy-",XYIWQQBZKLUEND-UPHRSURJSA-N,N\C(NO)=C(/N)N=O,-0.7773
B-1904,3-methyl-4-nitrophenol,PIIZYNQECPTVEO-UHFFFAOYSA-N,Cc1cc(O)ccc1[N+]([O-])=O,-2.1103
B-1905,c.i. disperse orange 1,YFVXLROHJBSEDW-UHFFFAOYSA-N,[O-][N+](=O)c1ccc(cc1)N=Nc2ccc(Nc3ccccc3)cc2,-7.5229
B-1906,"guanidine, 2-benzothiazolyl-",QMHWARSFUCGBJK-UHFFFAOYSA-N,NC(N)=Nc1sc2ccccc2n1,-2.4412
B-1907,2-hexenedioic acid,HSBSUGYTMJWPAX-UHFFFAOYSA-N,OC(=O)CCC=CC(O)=O,-1.2045
B-1908,phorate sulfoxide,XRQHTUDGPWMPKX-UHFFFAOYSA-N,CCO[P](=S)(OCC)SC[S](=O)CC,-1.5384
B-1909,phorate sulfone,YVPSNUIHHFTTRL-UHFFFAOYSA-N,CCO[P](=S)(OCC)SC[S](=O)(=O)CC,-2.5309
B-1910,etridazole,KQTVWCSONPJJPE-UHFFFAOYSA-N,CCOc1snc(n1)C(Cl)(Cl)Cl,-3.3254
B-1911,mecarbam,KLGMSAOQDHLCOS-UHFFFAOYSA-N,CCOC(=O)N(C)C(=O)CS[P](=S)(OCC)OCC,-2.5177
B-1912,fenthoate,XAMUDJHXFNRLCY-UHFFFAOYSA-N,CCOC(=O)C(S[P](=S)(OC)OC)c1ccccc1,-4.4643
B-1913,chipcote,DHKAICYEDDOCRO-UHFFFAOYSA-N,C[Hg]C#N,-0.0821
B-1914,"3,5-pyridinedicarboxylic acid, 2,6-dimethyl-",WQFXJSOUBPGBGW-UHFFFAOYSA-N,Cc1nc(C)c(cc1C(O)=O)C(O)=O,-2.809
B-1915,acid red 18,IVNZBWNBYXERPK-DZGBHZPSSA-K,[Na+].[Na+].[Na+].[O-][S](=O)(=O)c1cc2C=CC(=O)\C(=N/Nc3ccc(c4ccccc34)[S]([O-])(=O)=O)c2c(c1)[S]([O-])(=O)=O,-0.8783
B-1916,p-acetoxyacetanilide,UJAOSPFULOFZRR-UHFFFAOYSA-N,CC(=O)Nc1ccc(OC(C)=O)cc1,-1.9076
B-1917,"2,4(1h,3h)-pteridinedione, 1,3,6,7-tetramethyl-",RIUBVVOTTNDDIR-UHFFFAOYSA-N,CN1C(=O)N(C)c2nc(C)c(C)nc2C1=O,-1.3429
B-1918,"butanoic acid, 4-nitrophenyl ester",DVDUMIQZEUTAGK-UHFFFAOYSA-N,CCCC(=O)Oc1ccc(cc1)[N+]([O-])=O,-3.9404
B-1919,"1,2-naphthalenedione, 1-oxime",YXAOOTNFFAQIPZ-UHFFFAOYSA-N,Oc1ccc2ccccc2c1N=O,-2.9374
B-1920,"4,4'-dicyano-4,4'azo-di-valeric acid",VFXXTYGQYWRHJP-TXEJJXNPSA-L,C[C@@](CCC([O-])=O)(N=N[C@](C)(CCC([O-])=O)C#N)C#N,-2.0083
B-1921,azinphos ethyl,RQVGAIADHNPSME-UHFFFAOYSA-N,CCO[P](=S)(OCC)SCN1N=Nc2ccccc2C1=O,-4.5171
B-1922,6-aminochrysene,KIVUHCNVDWYUNP-UHFFFAOYSA-N,Nc1cc2c3ccccc3ccc2c4ccccc14,-6.1958
B-1923,"3,5-bis(tert-butyl)phenol methylcarbamate",SLZWBCGZQRRUNG-UHFFFAOYSA-N,CNC(=O)Oc1cc(cc(c1)C(C)(C)C)C(C)(C)C,-4.2445
B-1924,"1,4-dichloro-2,5-dimethoxybenzene",PFIADAMVCJPXSF-UHFFFAOYSA-N,COc1cc(Cl)c(OC)cc1Cl,-4.413
B-1925,".beta.-alanine, n-methyl-",VDIPNVCWMXZNFY-UHFFFAOYSA-N,CNCCC(O)=O,-0.0543
B-1926,2-chlorodiphenyl ether,IPBRZLMGGXHHMS-UHFFFAOYSA-N,Clc1ccccc1Oc2ccccc2,-4.7796
B-1927,"phosphoric acid, butyl diethyl ester",DWSYMNWJOYKKCK-UHFFFAOYSA-N,CCCCO[P](=O)(OCC)OCC,-1.1466
B-1928,"leucine, ethyl ester",QIGLJVBIRIXQRN-ZETCQYMHSA-N,CCOC(=O)[C@@H](N)CC(C)C,-0.5606
B-1929,"n,n'-bis-phenylacetyl-cystine",DWRCRIMPBCLETK-UHFFFAOYSA-N,OC(=O)C(CSSCC(NC(=O)Cc1ccccc1)C(O)=O)NC(=O)Cc2ccccc2,-1.833
B-1930,diquat,SYJFEGQWDCRVNX-UHFFFAOYSA-N,C1C[n+]2ccccc2c3cccc[n+]13,-3.425
B-1931,"4,5-dichloroveratrole",RJYXLZQZBLGBOM-UHFFFAOYSA-N,COc1cc(Cl)c(Cl)cc1OC,-3.4588
B-1932,endothion,YCAGGFXSFQFVQL-UHFFFAOYSA-N,COC1=COC(=CC1=O)CS[P](=O)(OC)OC,0.7286
B-1933,"phosphonic acid, (1-hydroxyethylidene)bis-",DBVJJBKOTRCVKF-UHFFFAOYSA-N,CC(O)([P](O)(O)=O)[P](O)(O)=O,0.5249
B-1935,"trans-2,5-dimethylpiperazine",NSMWYRLQHIXVAP-OLQVQODUSA-P,C[C@H]1C[NH2+][C@H](C)C[NH2+]1,0.4864
B-1936,4-oxo-pent-2-enoic acid,XGTKSWVCNVUVHG-UHFFFAOYSA-N,CC(=O)C=CC(O)=O,-0.2332
B-1937,"undecanoic acid, 11-bromo-",IUDGNRWYNOEIKF-UHFFFAOYSA-N,OC(=O)CCCCCCCCCCBr,-3.699
B-1938,"butanoic acid, 2-amino-, (.+-.)-",QWCKQJZIFLGMSD-UHFFFAOYSA-N,CCC(N)C(O)=O,0.2868
B-1939,"1-chloro-1,2,2,2-tetrafluoroethane",BOUGCJDAQLKBQH-UHFFFAOYSA-N,FC(Cl)C(F)(F)F,-1.959
B-1940,m-chloroanisole,YUKILTJWFRTXGB-UHFFFAOYSA-N,COc1cccc(Cl)c1,-2.783
B-1941,chlorpyrifos,SBPBAQFWLVIOKP-UHFFFAOYSA-N,CCO[P](=S)(OCC)Oc1nc(Cl)c(Cl)cc1Cl,-5.4956
B-1942,"cyclopentanecarbonitrile, 2-oxo-",IPMQSLPLJDKUPI-UHFFFAOYSA-N,O=C1CCCC1C#N,-0.3567
B-1943,"carbamic acid, diethylthio-, s-ethyl ester",WARIWGPBHKPYON-UHFFFAOYSA-N,CCSC(=O)N(CC)CC,-1.6917
B-1944,"phosphonic acid, phenyl, di-2-propenyl ester",YSRMRWIQPVDQBV-UHFFFAOYSA-N,C=CCO[P](=O)(OCC=C)c1ccccc1,-2.8999
B-1945,"phosphinic acid, dibutyl-, butyl ester",GXYBSEVPLCHEBL-UHFFFAOYSA-N,CCCCO[P](=O)(CCCC)CCCC,-1.7166
B-1946,"3,5-dichloro-2,6-dimethyl-4-pyridinol",ZDPIZLCVJAAHHR-UHFFFAOYSA-N,CC1=C(Cl)C(=O)C(=C(C)N1)Cl,-4.2834
B-1947,"benzaldehyde, 3-bromo-4-hydroxy-",UOTMHAOCAJROQF-UHFFFAOYSA-N,Oc1ccc(C=O)cc1Br,-2.1794
B-1948,"biphenyl, 3,4'-dichloro-",CJDNEKOMKXLSBN-UHFFFAOYSA-N,Clc1ccc(cc1)c2cccc(Cl)c2,-6.4001
B-1949,"2,3-dichlorophenoxyacetic acid",RBJIGQRZLITQJG-UHFFFAOYSA-N,OC(=O)COc1cccc(Cl)c1Cl,-2.8097
B-1950,"propanoic acid, 2-(acetyloxy)-, ethyl ester",BCHOKJRLDTXCSF-UHFFFAOYSA-N,CCOC(=O)C(C)OC(C)=O,-0.6994
B-1951,"thiocyanic acid, 4-aminophenyl ester",NJYFRQQXXXRJHK-UHFFFAOYSA-N,Nc1ccc(SC#N)cc1,-2.6015
B-1952,"1h-purin-2-amine, 6-(trifluoromethyl)-",BPGSASFKCZQNNZ-UHFFFAOYSA-N,Nc1nc2nc[nH]c2c(n1)C(F)(F)F,-3.1346
B-1953,ipatone,STMMVKNOSKBEEI-UHFFFAOYSA-N,CCN(CC)c1nc(NC(C)C)nc(OC)n1,-4.889
B-1954,norazine,KLJYRZOFJHYOCO-UHFFFAOYSA-N,CNc1nc(Cl)nc(NC(C)C)n1,-2.8896
B-1955,4-formyl-2-nitrophenol,YTHJCZRFJGXPTL-UHFFFAOYSA-N,Oc1ccc(C=O)cc1[N+]([O-])=O,-2.9512
B-1956,2-bromo-1-chloropropane,PUJJZGFFAQHYEX-UHFFFAOYSA-N,CC(Br)CCl,-1.8476
B-1957,g-32292 (aratone),UDLNDEWOMCYEIA-UHFFFAOYSA-N,CNc1nc(NC(C)C)nc(OC)n1,-1.7509
B-1958,brompyrazone,ODNZLRLWXRXPOH-UHFFFAOYSA-N,NC1=C(Br)C(=O)N(N=C1)c2ccccc2,-3.124
B-1960,"l-leucine, n-methyl-",XJODGRWDFZVTKW-LURJTMIESA-N,CN[C@@H](CC(C)C)C(O)=O,-0.5146
B-1961,"dl-valine, n-acetyl-",IHYJTAOFMMMOPX-UHFFFAOYSA-N,CC(C)C(NC(C)=O)C(O)=O,-0.6325
B-1962,"1,6-heptadiene",GEAWFZNTIFJMHR-UHFFFAOYSA-N,C=CCCCC=C,-3.3396
B-1963,"1,1,3-trimethylcyclohexane",PYOLJOJPIPCRDP-UHFFFAOYSA-N,CC1CCCC(C)(C)C1,-4.8532
B-1964,"glycine, n-(2-cyanoethyl)-",KZUBZCHAWPDYQX-UHFFFAOYSA-N,OC(=O)CNCCC#N,0.3237
B-1965,dl-alloisoleucine,AGPKZVBTJJNPAG-UHNVWZDZSA-N,CC[C@@H](C)[C@H](N)C(O)=O,-0.3895
B-1966,"1-butanone, 1-(4-fluorophenyl)-4-(4-hydroxy-4-ph",FEFFZKPQSVTBAY-UHFFFAOYSA-N,OC1(CCN(CCCC(=O)c2ccc(F)cc2)CC1)c3ccccc3,-4.1183
B-1967,"4,4-dimethyl-1-pentanol",OWCNPTHAWPMOJU-UHFFFAOYSA-N,CC(C)(C)CCCO,-1.5402
B-1968,"l-asparagine, n2-(aminocarbonyl)-",PMPZMFJQCCSPGS-REOHCLBHSA-N,NC(=O)C[C@H](NC(N)=O)C(O)=O,-0.511
B-1969,"benzamide, n-(3,4-dichlorophenyl)-n-[(dimethylam",QQXXYTVEGCOZRF-UHFFFAOYSA-N,CN(C)C(=O)N(c1ccc(Cl)c(Cl)c1)C(=O)c2ccccc2,-4.3238
B-1970,"urea, chloro-",RMXVHZFHSKRNJN-UHFFFAOYSA-N,NC(=O)NCl,0.3256
B-1971,"glycine, n-(n-leucylglycyl)-",VWHGTYCRDRBSFI-ZETCQYMHSA-N,CC(C)C[C@H](N)C(=O)NCC(=O)NCC(O)=O,0.2124
B-1972,d-glycero-d-gulo-heptose,YPZMPEPLWKRVLD-UHFFFAOYSA-N,OCC(O)C(O)C(O)C(O)C(O)C=O,-0.3226
B-1973,"benzoic acid, 2-hydroxy-5-(phenylazo)-",RHNZXOLQSPSLLQ-XNTDXEJSSA-N,OC(=O)C1=C/C(C=CC1=O)=N/Nc2ccccc2,-3.0559
B-1974,"benzenebutanoic acid, 4-methoxy--oxo-",OMTDIBZSUZNVJK-UHFFFAOYSA-N,COc1ccc(cc1)C(=O)CCC(O)=O,-1.0632
B-1975,"butanoic acid, 2-[(aminoiminomethyl)amino]-",YWCQQPRYWSJMLI-UHFFFAOYSA-N,CCC(NC=NN)C(O)=O,-0.8608
B-1976,"2,4,6-cycloheptatrien-1-one, 5-bromo-2-hydroxy-",DAHLUZDNJJOKGS-UHFFFAOYSA-N,OC1=CC=C(Br)C=CC1=O,-3.5629
B-1977,"1,2,5,6,9,10-hexabromocyclododecane",DEIGXXQKDWULML-UHFFFAOYSA-N,BrC1CCC(Br)C(Br)CCC(Br)C(Br)CCC1Br,-7.8728
B-1978,"lactic acid, 2-methyl-, isobutyl ester",OMLWQIBXAJLLRC-UHFFFAOYSA-N,CC(C)COC(=O)C(C)(C)O,-0.7276
B-1979,"morpholine, 4-(2-hydroxybenzoyl)-",TUFGIGGYNZUDAL-UHFFFAOYSA-N,Oc1ccccc1C(=O)N2CCOCC2,-1.7037
B-1980,"2,3-dichloronitrobenzene",CMVQZRLQEOAYSW-UHFFFAOYSA-N,[O-][N+](=O)c1cccc(Cl)c1Cl,-3.4881
B-1981,"propane, 1,3-dibromo-2,2-bis(bromomethyl)-",OYSVBCSOQFXYHK-UHFFFAOYSA-N,BrCC(CBr)(CBr)CBr,-5.3844
B-1982,tetrapropyl thiopyrophosphorate,IIDFEIDMIKSJSV-UHFFFAOYSA-N,CCCO[P](=S)(OCCC)O[P](=S)(OCCC)OCCC,-4.1009
B-1983,"1,10-phenanthroline, 4,7-dimethyl-",JIVLDFFWTQYGSR-UHFFFAOYSA-N,Cc1ccnc2c1ccc3c(C)ccnc23,-3.9686
B-1984,"peroxide, bis(1-oxopropyl)",KOPQZJAYZFAPBC-UHFFFAOYSA-N,CCC(=O)OOC(=O)CC,-0.9634
B-1987,2-(p-chlorophenoxy)propionic acid,DKHJWWRYTONYHB-UHFFFAOYSA-N,CC(Oc1ccc(Cl)cc1)C(O)=O,-2.1351
B-1988,dimethylguanidine,SWSQBOPZIKWTGO-UHFFFAOYSA-N,CN(C)C(N)=N,-1.7306
B-1989,"1-naphthalenecarboxylic acid, 3,4-dihydro-",JNPFDSPGHQBUPF-UHFFFAOYSA-N,OC(=O)C1=CCCc2ccccc12,-2.7939
B-1990,d-glycero-l-gulo-heptitol,OXQKEKGBFMQTML-UHFFFAOYSA-N,OCC(O)C(O)C(O)C(O)C(O)CO,0.3722
B-1991,"2-cyclohexen-1-one, oxime, (e)-",WNPVAXLJVUXYFU-SREVYHEPSA-N,O/N=C/1CCCC=C1,-0.7034
B-1993,"1-butene, 4-isothiocyanato-",SKIHGKNFJKJXPX-UHFFFAOYSA-N,C=CCCN=C=S,-2.391
B-1994,"tyrosine, 3,5-dichloro-",MPHURJQUHZHALJ-ZETCQYMHSA-N,N[C@@H](Cc1cc(Cl)c(O)c(Cl)c1)C(O)=O,-0.796
B-1995,"2-chloro-4,6-diamino-s-triazine",FVFVNNKYKYZTJU-UHFFFAOYSA-N,Nc1nc(N)nc(Cl)n1,-2.3849
B-1996,"propanamide, n,n'-1,2-ethanediylbis-",USEVKDWMVPLICN-UHFFFAOYSA-N,CCC(=O)NCCNC(=O)CC,0.3746
B-1997,"o,p'-dde",ZDYJWDIWLRZXDB-UHFFFAOYSA-N,Clc1ccc(cc1)C(=C(Cl)Cl)c2ccccc2Cl,-6.3563
B-1998,"[1,2,5]selenadiazolo[3,4-d]pyrimidine-5,7(4h,6h)",DBYGTBWHDSPWSZ-UHFFFAOYSA-N,CN1C(=O)N(C)c2n[se]nc2C1=O,-2.2994
B-1999,"2-furancarboxylic acid, 4-bromo-",QALYBHRYGIXHOF-UHFFFAOYSA-N,OC(=O)c1occ(Br)c1,-1.1841
B-2001,piperalin,BZGLBXYQOMFXAU-UHFFFAOYSA-N,CC1CCCCN1CCCOC(=O)c2ccc(Cl)c(Cl)c2,-4.2178
B-2002,"quinoxaline, 5,6,7,8-tetrachloro-",NHTGQOXRZFUGJX-UHFFFAOYSA-N,Clc1c(Cl)c(Cl)c2nccnc2c1Cl,-5.428
B-2003,"2,2,5-trimethylhexane",HHOSMYBYIHNXNO-UHFFFAOYSA-N,CC(C)CCC(C)(C)C,-5.0474
B-2004,"carbamic acid, diethyl-, ethyl ester",VAJCYQHLYBTSHG-UHFFFAOYSA-N,CCOC(=O)N(CC)CC,-1.0651
B-2005,"2,4,6-trihydroxybenzophenone",CPEXFJVZFNYXGU-UHFFFAOYSA-N,Oc1cc(O)c(c(O)c1)C(=O)c2ccccc2,-1.8708
B-2006,"di-d-fructofuranose 1,2':2,1'-dianhydride",DKOQIDXJOZQKIG-NCEFIRPQSA-N,OC[C@H]1OC2(COC3(CO2)O[C@H](CO)[C@@H](O)[C@@H]3O)[C@@H](O)[C@@H]1O,-0.0058
B-2007,"sulfanilamide, n1-(5-isobutyl-1,3,4-thiadiazol-2",IDXLLBBFRBQZFE-UHFFFAOYSA-N,CC(C)Cc1sc(N[S](=O)(=O)c2ccc(N)cc2)nn1,-3.8226
B-2008,"2-amino-3,5-dibromo-n-cyclohexyl-n-methylbenzene",OJGDCBLYJGHCIH-UHFFFAOYSA-N,CN(Cc1cc(Br)cc(Br)c1N)C2CCCCC2,-1.9733
B-2009,chlorphenoxamide,ODCUSWJXZDHLKV-UHFFFAOYSA-N,OCCN(Cc1ccc(Oc2ccc(cc2)[N+]([O-])=O)cc1)C(=O)C(Cl)Cl,-5.1241
B-2010,"propanedioic acid, nonyl-",FWQNYUYRXNWOOM-UHFFFAOYSA-N,CCCCCCCCCC(C(O)=O)C(O)=O,-3.3016
B-2011,"2-cf3-4,5-dichlorobenzimidazole",KSROTSBULDYPKA-UHFFFAOYSA-N,FC(F)(F)c1[nH]c2ccc(Cl)c(Cl)c2n1,-3.5677
B-2012,reposal,MKELYWOVSPVORM-UHFFFAOYSA-N,CCC1(C(=O)NC(=O)NC1=O)C2=CC3CCC(C3)C2,-2.7696
B-2013,"butanedioic acid, methyl-, (r)-",WXUAQHNMJWJLTG-GSVOUGTGSA-N,C[C@H](CC(O)=O)C(O)=O,0.6311
B-2014,"d-gluconic acid, 2-amino-2-deoxy-",UFYKDFXCZBTLOO-UHFFFAOYSA-N,NC(C(O)C(O)C(O)CO)C(O)=O,-0.859
B-2015,"benzeneethanamine, n-(phenylmethyl)-",UPABQMWFWCMOFV-UHFFFAOYSA-N,C(Cc1ccccc1)NCc2ccccc2,-2.7229
B-2016,4-ethylacetanilide,HOPWGOFWAPWHDS-UHFFFAOYSA-N,CCc1ccc(NC(C)=O)cc1,-2.1453
B-2017,"undecanoic acid, 11-hydroxy-",KNRCBASNXNXUQQ-UHFFFAOYSA-M,OCCCCCCCCCCC([O-])=O,-2.7039
B-2018,"spiro[benzofuran-2(3h), 1'-[2]cyclohexene]-3,4'-",QPCYNIYZPDJCMB-UHFFFAOYSA-N,COc1cc(OC)c2C(=O)C3(Oc2c1)C(C)CC(=O)C=C3OC,-3.699
B-2019,"butanal, 3-ethoxy-2-oxo-",VUNAKDMJSGEODG-UHFFFAOYSA-N,CCOC(C)C(=O)C=O,-0.1554
B-2020,chlorophacinone,UDHXJZHVNHGCEC-UHFFFAOYSA-N,Clc1ccc(cc1)C(C(=O)C2C(=O)c3ccccc3C2=O)c4ccccc4,-3.5738
B-2021,5-methylchrysene,GOHBXWHNJHENRX-UHFFFAOYSA-N,Cc1cc2ccccc2c3ccc4ccccc4c13,-6.592
B-2022,"5,6-dimethylchrysene",SDOJHDGZFOGOFD-UHFFFAOYSA-N,Cc1c(C)c2c3ccccc3ccc2c4ccccc14,-7.0109
B-2023,7-ethylbenz(a)anthracene,HBFJJKFTOQAJHO-UHFFFAOYSA-N,CCc1c2ccccc2cc3c1ccc4ccccc34,-6.796
B-2024,"1,3-benzenedisulfonamide",HUYYFHGIHVULSU-UHFFFAOYSA-N,N[S](=O)(=O)c1cccc(c1)[S](N)(=O)=O,-2.1693
B-2025,"3,5-dimethylpyridine-n-oxide",SSTLCMOZTCLOLQ-UHFFFAOYSA-N,Cc1cc(C)c[n+]([O-])c1,0.9095
B-2026,2-pyridinemethaneamine,WOXFMYVTSLAQMO-UHFFFAOYSA-N,NCc1ccccn1,0.966
B-2027,4-pyridinemethaneamine,TXQWFIVRZNOPCK-UHFFFAOYSA-N,NCc1ccncc1,0.966
B-2028,cyanthoate,TWDJIKFUVRYBJF-UHFFFAOYSA-N,CCO[P](=O)(OCC)SCC(=O)NC(C)(C)C#N,-0.6237
B-2029,parathion-amino,XIZOTXGJXSTQDI-UHFFFAOYSA-N,CCO[P](=S)(OCC)Oc1ccc(N)cc1,-2.826
B-2030,fenclorim,NRFQZTCQAYEXEE-UHFFFAOYSA-N,Clc1cc(Cl)nc(n1)c2ccccc2,-4.9544
B-2031,"cyclopentane, pentyl-",HPQURZRDYMUHJI-UHFFFAOYSA-N,CCCCCC1CCCC1,-6.0863
B-2032,2-[n-(2-Hydroxyethyl)-3-methyl-4-phenyldiazenylanilino]ethanol,IXKVXPGDWDXXQM-UHFFFAOYSA-N,Cc1cc(ccc1N=Nc2ccccc2)N(CCO)CCO,-4.1254
B-2033,sulfamethomidine,QKLSCPPJEVXONT-UHFFFAOYSA-N,COc1cc(N[S](=O)(=O)c2ccc(N)cc2)nc(C)n1,-2.543
B-2034,benazolin,HYJSGOXICXYZGS-UHFFFAOYSA-N,OC(=O)CN1C(=O)Sc2cccc(Cl)c12,-2.6087
B-2035,"propanedioic acid, dihydrazide",PSIKPHJLTVSQFO-UHFFFAOYSA-N,NNC(=O)CC(=O)NN,-0.121
B-2037,"2-butanamine, 3,3-dimethyl-",DXSUORGKJZADET-YFKPBYRVSA-O,C[C@H]([NH3+])C(C)(C)C,0.9861
B-2039,"d-gluconic acid, hydrazide",DSSOAANULUSBGQ-UHFFFAOYSA-N,NNC(=O)C(O)C(O)C(O)C(O)CO,-0.4985
B-2040,fuberidazole,UYJUZNLFJAWNEZ-UHFFFAOYSA-N,[nH]1c2ccccc2nc1c3occc3,-3.414
B-2041,"10h-phenothiazine, 3-bromo-",JEWIAYIESCUSKQ-UHFFFAOYSA-N,Brc1ccc2Nc3ccccc3Sc2c1,-6.1119
B-2042,"phenothiazine, 3-iodo-",YWRPCJIZYVCDOG-UHFFFAOYSA-N,Ic1ccc2Nc3ccccc3Sc2c1,-6.9278
B-2043,"1,2-bis(2-chloroethylsulfonyl)ethane",FQMRVYDYXSOKHL-UHFFFAOYSA-N,ClCC[S](=O)(=O)CC[S](=O)(=O)CCCl,-1.4486
B-2044,alizarin complexone,PWIGYBONXWGOQE-UHFFFAOYSA-N,OC(=O)CN(CC(O)=O)Cc1cc2C(=O)c3ccccc3C(=O)c2c(O)c1O,-1.8077
B-2045,"benzoic acid, 3-chloro-4-hydroxy-, methyl ester",ZSBIMTDWIGWJPW-UHFFFAOYSA-N,COC(=O)c1ccc(O)c(Cl)c1,-2.873
B-2046,"2,2-dimethyl-3-pentanol",HMSVXZJWPVIVIV-UHFFFAOYSA-N,CCC(O)C(C)(C)C,-1.1514
B-2047,"butanedioic acid, chloro-, (r)-",QEGKXSHUKXMDRW-UWTATZPHSA-N,OC(=O)C[C@@H](Cl)C(O)=O,-0.7953
B-2048,"propanedioic acid, hexyl-",UPFSMSDGKQSRLD-UHFFFAOYSA-N,CCCCCCC(C(O)=O)C(O)=O,-1.6566
B-2049,"2,3,6-trichlorophenoxyacetic acid",GQOHYQAHKDLXCV-UHFFFAOYSA-N,OC(=O)COc1c(Cl)ccc(Cl)c1Cl,-2.6198
B-2050,"ethanone, 2-methoxy-1-phenyl-",YRNDGUSDBCARGC-UHFFFAOYSA-N,COCC(=O)c1ccccc1,-0.7616
B-2051,n-(3-chlorallyl) hexaminium chloride,UKHVLWKBNNSRRR-TYYBGVCCSA-M,[Cl-].Cl/C=C/C[N+]12CN3CN(CN(C3)C1)C2,0.0829
B-2052,2-buten-1-ol (cis),WCASXYBKJHWFMY-IHWYPQMZSA-N,C\C=C/CO,0.3621
B-2053,"ethane, 2-chloro-1,1,1-trinitro-",BDQJEJZWJJUQGU-UHFFFAOYSA-N,[O-][N+](=O)C(CCl)([N+]([O-])=O)[N+]([O-])=O,-0.2586
B-2054,"butanedioic acid, tetraethyl-",CQCFISPMNREOQX-UHFFFAOYSA-N,CCC(CC)(C(O)=O)C(CC)(CC)C(O)=O,-2.9644
B-2055,"propanoic acid, 3-butoxy-, methyl ester",VBCSBEIIIFLVQV-UHFFFAOYSA-N,CCCCOCCC(=O)OC,-1.2909
B-2057,dipropetryne,NPWMZOGDXOFZIN-UHFFFAOYSA-N,CCSc1nc(NC(C)C)nc(NC(C)C)n1,-4.2031
B-2059,"propanoic acid, 2-methyl-, 4-nitrophenyl ester",AIKAOGTVMFOQKJ-UHFFFAOYSA-N,CC(C)C(=O)Oc1ccc(cc1)[N+]([O-])=O,-3.9588
B-2060,"propanoic acid, 3-methoxy-, butyl ester",RRIRSNXZGJWTQM-UHFFFAOYSA-N,CCCCOC(=O)CCOC,-1.2135
B-2062,"1,10-phenanthroline, 5-nitro-",PDDBTWXLNJNICS-UHFFFAOYSA-N,[O-][N+](=O)c1cc2cccnc2c3ncccc13,-3.9172
B-2063,"2,4(1h,3h)-pyrimidinedione, 5-ethyl-",RHIULBJJKFDJPR-UHFFFAOYSA-N,CCC1=CNC(=O)NC1=O,-1.9424
B-2064,"l-aspartic acid, n-methyl-",HOKKHZGPKSLGJE-UHFFFAOYSA-N,CNC(CC(O)=O)C(O)=O,-0.7544
B-2065,"benzoic acid, 2,2'-(1-oxo-1,2-ethanediyl)bis-",YPNGOYFSQMSAOZ-UHFFFAOYSA-N,OC(=O)c1ccccc1CC(=O)c2ccccc2C(O)=O,-2.791
B-2066,"1,3-benzenedicarboxylic acid, 4-nitro-",OCJFXVHDIVAONP-UHFFFAOYSA-N,OC(=O)c1ccc(c(c1)C(O)=O)[N+]([O-])=O,-1.3391
B-2067,4-chloroazobenzene,NJFDMENHTAYHMA-UHFFFAOYSA-N,Clc1ccc(cc1)N=Nc2ccccc2,-5.7023
B-2068,"2h-1,3-oxazin-2-one, tetrahydro-3-[(5-nitrofurfu",NOZLWTTVYNQLNJ-UXBLZVDNSA-N,[O-][N+](=O)c1oc(cc1)\C=N\N2CCCOC2=O,-3.4757
B-2069,"naphtho[2,1-b]furan-2(1)h-one",KVLORZFYGDNPIQ-UHFFFAOYSA-N,O=C1Cc2c(O1)ccc3ccccc23,-2.7078
B-2070,ajmaline,CJDRUOGAGYHKKD-QFTSDIPNSA-N,CC[C@@H]1[C@@H](O)N2[C@H]3C[C@@H]1C4C(O)[C@@]5(C[C@H]24)[C@H]3N(C)c6ccccc56,-2.8266
B-2071,decylpropanedioic acid,HCUZVMHXDRSBKX-UHFFFAOYSA-N,CCCCCCCCCCC(C(O)=O)C(O)=O,-3.99
B-2072,"benzenemethanol, 2-hydroxy-5-methyl-",ZUVDVLYXIZFDRM-UHFFFAOYSA-N,Cc1ccc(O)c(CO)c1,-0.3143
B-2073,"1h-pyrrole-2-carboxylic acid, 4-ethyl-5-formyl-3",ZPKWGTHVNZEDTD-UHFFFAOYSA-N,CCOC(=O)c1[nH]c(C=O)c(CC)c1C,-2.7186
B-2074,niflumic acid,JZFPYUNJRRFVQU-UHFFFAOYSA-N,OC(=O)c1cccnc1Nc2cccc(c2)C(F)(F)F,-4.1718
B-2075,"2-propanone, 1-(2-piperidinyl)-",JEIZLWNUBXHADF-UHFFFAOYSA-N,CC(=O)CC1CCCCN1,-0.4509
B-2077,"3,4-hexanedione, dioxime",XYYHQWXNCDZZLY-AATRIKPKSA-N,CC\C(NO)=C(\CC)N=O,-2.5525
B-2078,"morpholine, 4,4',4''-phosphinylidynetris-",WXMQHPKQCPCDQO-UHFFFAOYSA-N,O=[P](N1CCOCC1)(N2CCOCC2)N3CCOCC3,0.2984
B-2079,"benzenesulfonamide, 4-amino-n-(4,5-dimethyl-2-py",IHEAINLLXOBUEW-UHFFFAOYSA-N,Cc1cnc(N[S](=O)(=O)c2ccc(N)cc2)nc1C,-3.1435
B-2080,"1,1,3-trimethylcyclopentane",OBKHYUIZSOIEPG-UHFFFAOYSA-N,CC1CCC(C)(C)C1,-4.4784
B-2081,"piperazine-2,5-dione, 3-methyl-",ICCHEGCKVBMSTF-UHFFFAOYSA-N,CC1NC(=O)CNC1=O,0.2903
B-2082,n-nitrosomethylvinylamine,AWZVYNHQGTZJIH-UHFFFAOYSA-N,CN(C=C)N=O,-0.4579
B-2083,4-pyrimidone,DNCYBUMDUBHIJZ-UHFFFAOYSA-N,O=C1NC=NC=C1,0.586
B-2084,"2,4,6-cycloheptatrien-1-one, 3-bromo-2-hydroxy-",ZWZVMMDEDBKUEC-UHFFFAOYSA-N,OC1=C(Br)C=CC=CC1=O,-2.4352
B-2085,"ethanone, 1-(2-methyloxiranyl)-",MQUWXOWAAZHBSG-UHFFFAOYSA-N,CC(=O)C1(C)CO1,0.3797
B-2086,"glycine, n-[(ethylthio)thioxomethyl]-",OEVJJBPEVKMYFQ-UHFFFAOYSA-N,CCSC(=S)NCC(O)=O,-1.0882
B-2087,lactulose,JCQLYHFGKNRPGE-FCVZTGTOSA-N,OC[C@H]1O[C@@H](O[C@@H]2[C@@H](CO)O[C@](O)(CO)[C@H]2O)[C@H](O)[C@@H](O)[C@H]1O,0.3487
B-2088,"carbamic acid, diethyl-, methyl ester",VAGMFMWZIMXAGK-UHFFFAOYSA-N,CCN(CC)C(=O)OC,-0.2918
B-2089,"1-naphthalenebutanoic acid, .gamma.-oxo-",YNEXYDHOGAIPHO-UHFFFAOYSA-N,OC(=O)CCC(=O)c1cccc2ccccc12,-3.4833
B-2091,d-fenchone,LHXDLQBQYFFVNW-XCBNKYQSSA-N,CC1(C)[C@@H]2CC[C@@](C)(C2)C1=O,-1.8507
B-2092,"phosphonic diamide, p-phenyl-",SIZHJVYZJFWGHF-UHFFFAOYSA-N,N[P](N)(=O)c1ccccc1,-1.1482
B-2093,"1,3-propanediamine, n-phenyl-",DOSWHECVUKBMCG-UHFFFAOYSA-N,NCCCNc1ccccc1,-1.6543
B-2094,nitralin,UMKANAFDOQQUKE-UHFFFAOYSA-N,CCCN(CCC)c1c(cc(cc1[N+]([O-])=O)[S](C)(=O)=O)[N+]([O-])=O,-5.7601
B-2095,n-phenylphthalamic acid,DSUPUOGOCIFZBG-UHFFFAOYSA-N,OC(=O)c1ccccc1C(=O)Nc2ccccc2,-4.0814
B-2096,kryptocyanine,CEJANLKHJMMNQB-UHFFFAOYSA-M,[I-].CCN1C=CC(=CC=Cc2cc[n+](CC)c3ccccc23)c4ccccc14,-2.6816
B-2098,3-chloro-2-nitrobenzoic acid,VCHSXYHBMFKRBK-UHFFFAOYSA-M,[O-]C(=O)c1cccc(Cl)c1[N+]([O-])=O,-2.6323
B-2099,"serine, o-ethyl-",AFGCRUGTZPDWSF-BYPYZUCNSA-N,CCOC[C@H](N)C(O)=O,0.524
B-2100,"propanoic acid, 2,2'-dithiobis-",YCLSOMLVSHPPFV-UHFFFAOYSA-N,OC(=O)CCSSCCC(O)=O,-0.9301
B-2101,crotononitrile,NKKMVIVFRUYPLQ-NSCUHMNNSA-N,C/C=C/C#N,-0.4287
B-2102,1-hexen-3-ol,BVOSSZSHBZQJOI-UHFFFAOYSA-N,CCCC(O)C=C,-0.5993
B-2103,4-methyl-1-penten-3-ol,SZKVYEHTIWILMA-UHFFFAOYSA-N,CC(C)C(O)C=C,-0.515
B-2104,2-hexene-4-ol,KWUXUOPPQQMMIL-HWKANZROSA-N,CCC(O)\C=C\C,-0.4198
B-2105,"benzenepropanoic acid, .alpha.-oxo-.beta.-phenyl",VDIDZYZFFJPJCJ-UHFFFAOYSA-N,OC(=O)C(=O)C(c1ccccc1)c2ccccc2,-2.3354
B-2106,kasugamycin,OWNAXTAAAQTBSP-UHFFFAOYSA-N,CN(C)C(=O)Nc1cccc(OC(=O)NC(C)(C)C)c1,-2.9342
B-2107,"phosphinic acid, di-4-morpholinyl-, phenyl ester",ARRSANOSOGNTIJ-UHFFFAOYSA-N,O=[P](Oc1ccccc1)(N2CCOCC2)N3CCOCC3,0.3925
B-2108,"propanoic acid, 3-hydroxy-, butyl ester",MENWVOUYOZQBDM-UHFFFAOYSA-N,CCCCOC(=O)CCO,-1.2899
B-2110,"butanedioic acid, 2,2'-thiobis-",SASYRHXVHLPMQD-UHFFFAOYSA-N,OC(=O)CC(SC(CC(O)=O)C(O)=O)C(O)=O,-0.4908
B-2111,3-methyl-2-nitrophenol,QIORDSKCCHRSSD-UHFFFAOYSA-N,Cc1cccc(O)c1[N+]([O-])=O,-1.64
B-2112,"acetamide, 2-chloro-n-(chloroacetyl)-",UWZCYHHAEYIVRW-UHFFFAOYSA-N,ClCC(=O)NC(=O)CCl,-2.2304
B-2113,"2-benzothiazolesulfenamide, n,n-dicyclohexyl-",CMAUJSNXENPPOF-UHFFFAOYSA-N,C1CCC(CC1)N(Sc2sc3ccccc3n2)C4CCCCC4,-6.7886
B-2114,"benzoic acid, 4,5-dimethoxy-2-nitro-",WWCMFGBGMJAJRX-UHFFFAOYSA-M,COc1cc(C([O-])=O)c(cc1OC)[N+]([O-])=O,-0.7543