ID,Name,InChIKey,SMILES,Solubility
A-3605,vanadium oxide sulphate,UUUGYDOQQLOJQA-UHFFFAOYSA-L,[O-][S]([O-])(=O)=O.O=[V++],0.4571186188
A-3606,lithium(1+) ion perchlorate,JAWYRNYHJJDXHX-UHFFFAOYSA-M,[Li+].O.O.O.[O-][Cl](=O)(=O)=O,0.4612188619
A-3608,potassium nonafluorobutane-1-sulfonate,LVTHXRLARFLXNR-UHFFFAOYSA-M,[K+].[O-][S](=O)(=O)C(F)(F)C(F)(F)C(F)(F)C(F)(F)F,-0.8645162178
A-3609,"2-[(E)-2-{4-[ethyl(2-hydroxyethyl)amino]phenyl}diazen-1-yl]-6-methoxy-3-methyl-1,3-benzothiazol-3-ium chloride",XZLJSWJFZGBAQT-UHFFFAOYSA-M,[Cl-].CCN(CCO)c1ccc(cc1)N=Nc2sc3cc(OC)ccc3[n+]2C,-0.9467714818
A-3610,"2-[(E)-2-{4-[ethyl(2-hydroxyethyl)amino]phenyl}diazen-1-yl]-6-methoxy-3-methyl-1,3-benzothiazol-3-ium methyl sulfate",MHOFGBJTSNWTDT-UHFFFAOYSA-M,CCN(CCO)c1ccc(cc1)N=Nc2sc3cc(OC)ccc3[n+]2C.CO[S]([O-])(=O)=O,-1.0208150872
A-3611,butyl 2-hydroxyacetate,VFGRALUHHHDIQI-UHFFFAOYSA-N,CCCCOC(=O)CO,-0.4583389122
A-3612,methyl 2-chloroacetate,QABLOFMHHSOFRJ-UHFFFAOYSA-N,COC(=O)CCl,-0.372767961
A-3613,cadmium dichloride,YKYOUMDCQGMQQO-UHFFFAOYSA-L,[Cl-].[Cl-].[Cd++],0.3967110896
A-3614,sodium 2-bromoethane-1-sulfonate,HNFOAHXBHLWKNF-UHFFFAOYSA-M,[Na+].[O-][S](=O)(=O)CCBr,0.332748699
A-3615,"benzene-1,2-diol",YCIMNLLNPGFGHC-UHFFFAOYSA-N,Oc1ccccc1O,0.6123418909
A-3616,"N,N-diethylhydroxylamine",FVCOIAYSJZGECG-UHFFFAOYSA-N,CCN(O)CC,0.7036319098
A-3617,bis(amino(imino)methanaminium) carbonate,STIAPHVBRDNOAJ-UHFFFAOYSA-N,NC(N)=N.NC(N)=N.OC(O)=O,0.3975348562
A-3618,lithium(1+) ion acetate,XIXADJRWDQXREU-UHFFFAOYSA-M,[Li+].CC([O-])=O,0.8337672927
A-3621,4-{2-[(2-methylprop-2-enoyl)oxy]ethoxy}-4-oxobutanoic acid,ZEWLHMQYEZXSBH-UHFFFAOYSA-N,CC(=C)C(=O)OCCOC(=O)CCC(O)=O,-0.706708916
A-3622,"(4S,4aS,5aS,6S,12aR)-7-chloro-4-(dimethylamino)-1,6,10,11,12a-pentahydroxy-3,12-dioxo-3,4,4a,5,5a,6,12,12a-octahydrotetracene-2-carboxamide hydrochloride",POPIIQNWBBGGRT-YHBXTMLJSA-N,[Cl-].CN(C)[C@H]1[C@@H]2C[C@@H]3[C@H](O)c4c(Cl)ccc(O)c4C(=C3C(=O)[C@]2(O)C(=O)\C(=C(N)/O)C1=O)O.[H+],-1.0469016509
A-3623,2-methylbutanoic acid,WLAMNBDJUVNPJU-UHFFFAOYSA-N,CCC(C)C(O)=O,-0.3559535751
A-3625,diiron(3+) ion trisulfate,RUTXIHLAWFEWGM-UHFFFAOYSA-H,[Fe+3].[Fe+3].[O-][S]([O-])(=O)=O.[O-][S]([O-])(=O)=O.[O-][S]([O-])(=O)=O,1.0415240791
A-3629,zinc dibromide,VNDYJBBGRKZCSX-UHFFFAOYSA-L,[Zn++].[Br-].[Br-],1.2977429939
A-3631,"chromium(3+) ion pentasodium bis(8-[(4-amino-6-chloro-1,3,5-triazin-2-yl)amino]-2-[(E)-2-(5-nitro-2-oxidophenyl)diazen-1-yl]-3,6-disulfonatonaphthalen-1-olate)",AICVXAYCWMYBPS-UHFFFAOYSA-F,[Na+].[Na+].[Na+].[Na+].[Na+].[Cr+3].Nc1nc(Cl)nc(Nc2cc(cc3cc(c(N=Nc4cc(ccc4[O-])[N+]([O-])=O)c([O-])c23)[S]([O-])(=O)=O)[S]([O-])(=O)=O)n1.Nc5nc(Cl)nc(Nc6cc(cc7cc(c(N=Nc8cc(ccc8[O-])[N+]([O-])=O)c([O-])c67)[S]([O-])(=O)=O)[S]([O-])(=O)=O)n5,-0.4949751746
A-3636,sodium 3-(4-methyl-2-nitrophenoxy)propanesulphonate,NYUMEYVVSINMIU-UHFFFAOYSA-M,[Na+].Cc1ccc(OCCC[S]([O-])(=O)=O)c(c1)[N+]([O-])=O,0.1703103591
A-3639,"2-butyl-1,3-diazaspiro[4.4]non-1-en-4-one 2-butyl-1,3-diazaspiro[4.4]non-2-en-4-one dihydrochloride",IIJDGRLUYMOVFN-UHFFFAOYSA-N,Cl.Cl.CCCCC1=NC2(CCCC2)C(=O)N1.CCCCC3=NC(=O)C4(CCCC4)N3,-1.019613944
A-3640,"trisodium 5-({4-chloro-6-[ethyl(phenyl)amino]-1,3,5-triazin-2-yl}amino)-4-hydroxy-3-[(E)-2-(2-sulfonatophenyl)diazen-1-yl]naphthalene-2,7-disulfonate",LTDWIWZCTPXWKI-BGSWCMMMSA-K,[Na+].[Na+].[Na+].CCN(c1ccccc1)c2nc(Cl)nc(Nc3cc(cc4C=C(\C(=N/Nc5ccccc5[S]([O-])(=O)=O)C(=O)c34)[S]([O-])(=O)=O)[S]([O-])(=O)=O)n2,-0.2667452841
A-3641,zinc(2+) ion dichloride,JIAARYAFYJHUJI-UHFFFAOYSA-L,[Cl-].[Cl-].[Zn++],0.5010006364
A-3642,thymidine,IQFYYKKMVGJFEH-UHFFFAOYSA-N,CC1=CN(C2CC(O)C(CO)O2)C(=O)NC1=O,-0.7420620877
A-3646,"2-[(E)-2-[4-(diethylamino)phenyl]ethenyl]-1,3,3-trimethyl-3H-indol-1-ium acetate",KEUVYXFBMUFRGG-UHFFFAOYSA-M,CCN(CC)c1ccc(cc1)C=CC2=[N+](C)c3ccccc3C2(C)C.CC([O-])=O,-0.9604187817
A-3647,"2-[2-[4-(diethylamino)phenyl]vinyl]-1,3,3-trimethyl-3H-indolium dihydrogen phosphate",DNQYATSEPGGRFT-UHFFFAOYSA-M,CCN(CC)c1ccc(cc1)C=CC2=[N+](C)c3ccccc3C2(C)C.O[P](O)([O-])=O,-1.0004895677
A-3648,disodium 4-[(3-carboxylato-2-hydroxynaphthalen-1-yl)methyl]-3-hydroxynaphthalene-2-carboxylate,MQIPLTYHZCWJRA-UHFFFAOYSA-N,[Na].OC(=O)c1cc2ccccc2c(Cc3c(O)c(cc4ccccc34)C(O)=O)c1O,-0.9807588825
A-3650,"diammonium 2,3-dihydroxybutanedioate",NGPGDYLVALNKEG-OLXYHTOASA-N,N.N.O[C@H]([C@@H](O)C(O)=O)C(O)=O,0.3662767626
A-3651,5-(aminomethyl)-2-methylpyrimidin-4-amine,OZOHTVFCSKFMLL-UHFFFAOYSA-N,Cc1ncc(CN)c(N)n1,0.4903065627
A-3652,manganese(2+) dinitrate,MIVBAHRSNUNMPP-UHFFFAOYSA-N,[Mn++].[O-][N+]([O-])=O.[O-][N+]([O-])=O,1.377095201
A-3653,(3-{[3-(dimethylamino)propyl]amino}propyl)dimethylamine,BXYVQNNEFZOBOZ-UHFFFAOYSA-N,CN(C)CCCNCCCN(C)C,0.3558508036
A-3654,"2-(2,4-diaminophenoxy)ethan-1-ol dihydrochloride",VXYWXJXCQSDNHX-UHFFFAOYSA-N,[H+].[H+].[Cl-].[Cl-].Nc1ccc(OCCO)c(N)c1,0.2461592974
A-3655,"trisodium 2-hydroxypropane-1,2,3-tricarboxylate",HRXKRNGNAMMEHJ-UHFFFAOYSA-K,[Na+].[Na+].[Na+].OC(CC([O-])=O)(CC([O-])=O)C([O-])=O,0.2166530911
A-3657,aluminium(3+) ion trinitrate,SWCIQHXIXUMHKA-UHFFFAOYSA-N,O.O.O.O.O.O.O.O.O.[Al+3].[O-][N+]([O-])=O.[O-][N+]([O-])=O.[O-][N](=O)=O,-0.9408131942
A-3658,sodium fluoride,PUZPDOWCWNUUKD-UHFFFAOYSA-M,[F-].[Na+],-0.0021872624
A-3661,1-phenylethanamine,RQEUFEKYXDPUSK-ZETCQYMHSA-N,C[C@H](N)c1ccccc1,-0.4601924093
A-3665,sodium 4-(methoxycarbonyl)phenolate,PESXGULMKCKJCC-UHFFFAOYSA-M,[Na+].COC(=O)c1ccc([O-])cc1,0.3803001877
A-3666,sodium hydrogen 2-aminopentanedioate,LPUQAYUQRXPFSQ-UHFFFAOYSA-M,[Na+].NC(CCC(O)=O)C([O-])=O,0.3919616292
A-3667,sodium azide,PXIPVTKHYLBLMZ-UHFFFAOYSA-N,[Na+].[N-]=[N+]=[N-],0.8040134947
A-3668,manganese(2+) ion disodium 2-({2-[bis(carboxylatomethyl)amino]ethyl}(carboxylatomethyl)amino)acetate,ZQHKAIDDHTYINE-UHFFFAOYSA-J,[Na+].[Na+].[Mn++].[O-]C(=O)CN(CCN(CC([O-])=O)CC([O-])=O)CC([O-])=O,0.024802502
A-3671,diammonium oxalate,VBIXEXWLHSRNKB-UHFFFAOYSA-N,[NH4+].[NH4+].[O-]C(=O)C([O-])=O,-0.4725815013
A-3673,(2S)-2-amino-4-carbamoylbutanoic acid,ZDXPYRJPNDTMRX-VKHMYHEASA-N,N[C@@H](CCC(N)=O)C(O)=O,-0.5483114194
A-3674,(2S)-2-amino-3-methylpentanoic acid,AGPKZVBTJJNPAG-WHFBIAKZSA-N,CC[C@H](C)[C@H](N)C(O)=O,-0.5029538568
A-3675,"2-[(2H-1,3-benzodioxol-5-yl)amino]ethan-1-ol hydrochloride",LMONVTDNVNEAQG-UHFFFAOYSA-N,[H+].[Cl-].OCCNc1ccc2OCOc2c1,0.2728975009
A-3678,"2,5-dihydrofuran-2,5-dione",FPYJFEHAWHCUMM-UHFFFAOYSA-N,O=C1OC(=O)C=C1,0.6181158071
A-3683,disodium carbonate,CDBYLPFSWZWCQE-UHFFFAOYSA-L,[Na+].[Na+].[O-]C([O-])=O,0.581124668
A-3685,"disodium 7-({bis[(2-hydroxyethyl)amino]-1,3,5-triazin-2-yl}amino)-4-hydroxy-3-[(E)-2-{4-[(E)-2-(4-sulfonatophenyl)diazen-1-yl]phenyl}diazen-1-yl]naphthalene-2-sulfonate",GCRNVICBLHQKTF-FOZHKXGMSA-L,[Na+].[Na+].OCCNc1nc(NCCO)nc(Nc2ccc3C(=O)C(=N/Nc4ccc(cc4)N=Nc5ccc(cc5)[S]([O-])(=O)=O)\C(=Cc3c2)[S]([O-])(=O)=O)n1,-0.2836980197
A-3687,2-methyloxirane,GOOHAUXETOMSMM-VKHMYHEASA-N,C[C@H]1CO1,0.8380333836
A-3688,"disodium 2,2'-(azodi-p-phenylene)bis[6-methylbenzothiazole-7-sulphonate]",GRUAQEWEHJNSDG-UHFFFAOYSA-L,[Na+].[Na+].Cc1ccc2nc(sc2c1[S]([O-])(=O)=O)c3ccc(cc3)N=Nc4ccc(cc4)c5sc6c(ccc(C)c6[S]([O-])(=O)=O)n5,-1.2223096235
A-3690,1-[2-(2-butoxy-1-methylethoxy)-1-methylethoxy]propan-1-ol,QVIFIIFBFORLSL-UHFFFAOYSA-N,CCOCCCC(C)OCCOCC(C)CO,-0.790860844
A-3691,(1R)-1-phenylethan-1-amine,RQEUFEKYXDPUSK-UHFFFAOYSA-N,CC(N)c1ccccc1,-0.4813817083
A-3692,dipotassium zinc 2-[2-[bis(2-oxido-2-oxoethyl)amino]ethyl-(2-oxido-2-oxoethyl)amino]acetate,HALPFWFCTAYLEL-UHFFFAOYSA-J,[K+].[K+].[Zn++].[O-]C(=O)CN(CCN(CC([O-])=O)CC([O-])=O)CC([O-])=O,0.237458201
A-3694,2-[(butylcarbamoyl)oxy]ethyl prop-2-enoate,FLKHVLRENDBIDB-UHFFFAOYSA-N,CCCCNC(=O)OCCOC(=O)C=C,-1.6348405969
A-3696,(4-chlorophenyl)hydrazine,YQVZREHUWCCHHX-UHFFFAOYSA-N,[H+].[Cl-].NNc1ccc(Cl)cc1,-1.5636654662
A-3700,"3,5-dimethylaniline",MKARNSWMMBGSHX-UHFFFAOYSA-N,Cc1cc(C)cc(N)c1,-1.4022004623
A-3701,Sodium; cobalt(3+); 1-[(2-oxido-5-sulfamoylphenyl)diazenyl]naphthalen-2-olate,PHQDZULYJVQNFM-UHFFFAOYSA-J,[Na+].[Co+3].N[S](=O)(=O)c1ccc([O-])c(c1)N=Nc2c([O-])ccc3ccccc23.N[S](=O)(=O)c4ccc([O-])c(c4)N=Nc5c([O-])ccc6ccccc56,-2.2022038482
A-3702,"1,3,3-trimethyl-5-oxocyclohexane-1-carbonitrile",JJDFVIDVSCYKDS-UHFFFAOYSA-N,CC1(C)CC(=O)CC(C)(C1)C#N,-1.5404977204
A-3703,4-(4-chlorophenyl)piperidin-4-ol,PXAJMBHRLGKPQV-UHFFFAOYSA-N,[H+].[Cl-].OC1(CCNCC1)c2ccc(Cl)cc2,-1.7207775313
A-3706,amino(phenyl)acetic acid,ZGUNAGUHMKGQNY-SSDOTTSWSA-N,[NH3+][C@@H](C([O-])=O)c1ccccc1,-1.5082784057
A-3708,octan-1-amine dibutyl sulfanylphosphonate,IVMOXNPAUDFORG-UHFFFAOYSA-N,CCCCCCCCN.CCCCO[P](S)(=O)OCCCC,-1.8796973024
A-3712,"4-amino-N-tert-butyl-5-oxo-3-(propan-2-yl)-4,5-dihydro-1H-1,2,4-triazole-1-carboxamide",ORFPWVRKFLOQHK-UHFFFAOYSA-N,CC(C)C1=NN(C(=O)NC(C)(C)C)C(=O)N1N,-1.7188473974
A-3713,4-(4-hydroxyphenyl)butan-2-one,NJGBTKGETPDVIK-UHFFFAOYSA-N,CC(=O)CCc1ccc(O)cc1,-1.5520409413
A-3714,(2H)chloroform,HEDRZPFGACZZDS-MICDWDOJSA-N,ClC(Cl)(Cl)[2H],-1.417811305
A-3716,"4-amino-3,6-dichloropyridine-2-carboxylic acid",NIXXQNOQHKNPEJ-UHFFFAOYSA-N,Nc1cc(Cl)nc(C(O)=O)c1Cl,-0.0042500518
A-3720,"2,2'-({4-[(2-hydroxyethyl)amino]-3-nitrophenyl}imino)diethanol",MIWUTEVJIISHCP-UHFFFAOYSA-N,OCCNc1ccc(cc1[N+]([O-])=O)N(CCO)CCO,-1.7953855716
A-3721,aluminium(3+) ion potassium tetrafluoride,YPYRDLOVFOAQIR-UHFFFAOYSA-M,[F-].[Al+3].[K+],-1.269901072
A-3723,tributoxyalumane,MYWQGROTKMBNKN-UHFFFAOYSA-N,[Al+3].CCCC[O-].CCCC[O-].CCCC[O-],-1.7373354758
A-3725,"2,4-dichlorophenol",HFZWRUODUSTPEG-UHFFFAOYSA-N,Oc1ccc(Cl)cc1Cl,-1.5589830837
A-3730,tetrasodium 8-[[4-[(4-amino-3-sulphonatophenyl)azo]-6-sulphonatonaphthyl]azo]-5-[[6-(benzoylamino)-1-hydroxy-3-sulphonato-2-naphthyl]azo]naphthalene-2-sulphonate,WSKMZXPHHJCCDK-HTWUECFASA-J,[Na+].[Na+].[Na+].[Na+].Nc1ccc(cc1[S]([O-])(=O)=O)N=Nc2ccc(N=Nc3ccc(N\N=C/4C(=O)c5ccc(NC(=O)c6ccccc6)cc5C=C4[S]([O-])(=O)=O)c7ccc(cc37)[S]([O-])(=O)=O)c8ccc(cc28)[S]([O-])(=O)=O,-2.3935953584
A-3733,methyl 3-methylbut-2-enoate,FZIBCCGGICGWBP-UHFFFAOYSA-N,COC(=O)C=C(C)C,-1.4140004112
A-3735,"Benzoic acid, 2-hydroxy-5-[[4-[[4-[[8-hydroxy-7-[[4-[(8-hydroxy-3,6-disulfo-1-naphthalenyl)azo]-2-methoxy-5-methylphenyl]azo]-3,6-disulfo-1-naphthalenyl]amino]-6-(phenylamino)-1,3,5-triazin-2-yl]amino]phenyl]azo]-, pentasodium salt",HTPJPKXFBLUBPI-UHFFFAOYSA-I,[Na+].[Na+].[Na+].[Na+].[Na+].COc1cc(N=Nc2cc(cc3cc(cc(O)c23)[S]([O-])(=O)=O)[S]([O-])(=O)=O)c(C)cc1N=Nc4c(O)c5c(Nc6nc(Nc7ccccc7)nc(Nc8ccc(cc8)N=Nc9ccc(O)c(c9)C([O-])=O)n6)cc(cc5cc4[S]([O-])(=O)=O)[S]([O-])(=O)=O,-2.4833879664
A-3737,"3-(3-methyl-5-oxo-4,5-dihydro-1H-pyrazol-1-yl)benzene-1-sulfonic acid",VEMGKBUHUTYHHA-UHFFFAOYSA-N,CC1=NN(C(=O)C1)c2cccc(c2)[S](O)(=O)=O,-1.7718215434
A-3738,3-methylbut-2-en-1-yl acetate,XXIKYCPRDXIMQM-UHFFFAOYSA-N,CC(=O)OCC=C(C)C,-1.4743213171
A-3739,"N,N-dimethyloctanamide",VHRUBWHAOUIMDW-UHFFFAOYSA-N,CCCCCCCC(=O)N(C)C,-1.6002483409
A-3741,heptan-2-one,CATSNJVOTSVZJV-UHFFFAOYSA-N,CCCCCC(C)=O,-1.4333383705
A-3742,2-methylpentanal,FTZILAQGHINQQR-UHFFFAOYSA-N,CCCC(C)C=O,-1.3774493615
A-3744,"hexahydro-2-benzofuran-1,3-dione",MUTGBJKUEZFXGO-UHFFFAOYSA-N,O=C1OC(=O)C2CCCCC12,-1.5647364969
A-3746,"2,2-bis[(prop-2-en-1-yloxy)methyl]butan-1-ol",BDKDHWOPFRTWPP-UHFFFAOYSA-N,CCC(CO)(COCC=C)COCC=C,-1.7182484471
A-3749,N-butylbutan-1-amine,JQVDAXLFBXTEQA-UHFFFAOYSA-N,CCCCNCCCC,-1.5039654481
A-3751,"(1-methyl-1,2-ethanediyl)bis[oxy(methyl-2,1-ethanediyl)] diacrylate",ZDQNWDNMNKSMHI-UHFFFAOYSA-N,CC(COCC(C)OC(=O)C=C)OCC(C)OC(=O)C=C,-1.8755690909
A-3752,(2R)-2-methyloxirane,GOOHAUXETOMSMM-GSVOUGTGSA-N,C[C@@H]1CO1,0.8380333836
A-3754,2-(dibutylamino)ethan-1-ol,IWSZDQRGNFLMJS-UHFFFAOYSA-N,CCCCN(CCO)CCCC,-1.6367385714
A-3757,sodium 3-[(dimethylcarbamothioyl)sulfanyl]propane-1-sulfonate,ALXDAYUOWUEKLS-UHFFFAOYSA-M,[Na+].CN(C)C(=S)SCCC[S]([O-])(=O)=O,0.1779035996
A-3760,"tetrasodium 4-amino-5-hydroxy-6-[(E)-2-{2-methoxy-5-[2-(sulfonatooxy)ethanesulfonyl]phenyl}diazen-1-yl]-3-[(E)-2-{4-[2-(sulfonatooxy)ethanesulfonyl]phenyl}diazen-1-yl]naphthalene-2,7-disulfonate",VPXBRNMQOUKIMZ-BKYDQJEUSA-J,[Na+].[Na+].[Na+].[Na+].COc1ccc(cc1N\N=C/2C(=O)c3c(N)c(N=Nc4ccc(cc4)[S](=O)(=O)CCO[S]([O-])(=O)=O)c(cc3C=C2[S]([O-])(=O)=O)[S]([O-])(=O)=O)[S](=O)(=O)CCO[S]([O-])(=O)=O,-0.4161044823
A-3762,3-amino-4-methylbenzamide,VYBKAZXQKUFAHG-UHFFFAOYSA-N,Cc1ccc(cc1N)C(N)=O,-0.5767319197
A-3765,"1,3-thiazol-5-ylmethanol",WKBQQWDVVHGWDB-UHFFFAOYSA-N,OCc1scnc1,0.5257355357
A-3768,"(2S,4R)-1-acetyl-4-hydroxypyrrolidine-2-carboxylic acid",BAPRUDZDYCKSOQ-WDSKDSINSA-M,CC(=O)N1C[C@@H](O)C[C@H]1C([O-])=O,0.3449927217
A-3769,"5-(benzoylamino)-4-hydroxy-3-[[1-sulpho-6-[[2-(sulphooxy)ethyl]sulphonyl]-2-naphthyl]azo]naphthalene-2,7-disulphonic acid, sodium salt",LWOVLHCKRPSUIB-CICQTRKRSA-J,[Na+].[Na+].[Na+].[Na+].[O-][S](=O)(=O)OCC[S](=O)(=O)c1ccc2c(ccc(N\N=C/3C(=O)c4c(NC(=O)c5ccccc5)cc(cc4C=C3[S]([O-])(=O)=O)[S]([O-])(=O)=O)c2[S]([O-])(=O)=O)c1,-0.3893149412
A-3771,"tetrasodium 2,2'-ethene-1,2-diylbis[5-({4-morpholin-4-yl-6-[(4-sulfonatophenyl)amino]-1,3,5-triazin-2-yl}amino)benzenesulfonate]",XQESDAXKAMZHMR-YWURNZKTSA-J,[Na].[Na].[Na].[Na].CNc1ccc(/C=C/c2ccc(Nc3nc(Nc4ccc(cc4)[S]([O-])(=O)=O)nc(n3)N5CCOCC5)cc2[S]([O-])(=O)=O)c(c1)[S]([O-])(=O)=O.Cc6nc(Nc7ccc(cc7)[S]([O-])(=O)=O)nc(n6)N8CCOCC8,-0.4843358105
A-3772,Trimethylsulfoxonium iodide,BPLKQGGAXWRFOE-UHFFFAOYSA-M,[I-].C[S+](C)(C)=O,-0.7568844321
A-3773,"4-methylbenzene-1,3-diamine",VOZKAJLKRJDJLL-UHFFFAOYSA-N,Cc1ccc(N)cc1N,-0.5071845321
A-3774,diaminotoluene,OBCSAIDCZQSFQH-UHFFFAOYSA-N,Cc1cc(N)ccc1N,-0.5071845321
A-3775,Cobalt sulfate heptahydrate,MEYVLGVRTYSQHI-UHFFFAOYSA-L,O.O.O.O.O.O.O.[Co++].[O-][S]([O-])(=O)=O,0.1271332296
A-3776,sodium (dimethylcarbamothioyl)sulfanide,VMSRVIHUFHQIAL-UHFFFAOYSA-M,[Na+].CN(C)C([S-])=S,0.4168921924
A-3778,tris[4-(diethylamino)phenyl]methylium acetate,CBMNJIRTNNMVJC-UHFFFAOYSA-M,CCN(CC)c1ccc(cc1)[C+](c2ccc(cc2)N(CC)CC)c3ccc(cc3)N(CC)CC.CC([O-])=O,-0.1395608979
A-3779,ammonium chloride,NLXLAEXVIDQMFP-UHFFFAOYSA-N,[NH4+].[Cl-],0.8422541039
A-3781,3-morpholin-4-yloxadiazol-3-ium-5-amine chloride,ZRFWHHCXSSACAW-UHFFFAOYSA-M,[Cl-].Nc1cn(n[o+]1)N2CCOCC2,0.1471983169
A-3786,(2Z)-4-butoxy-4-oxobut-2-enoic acid,UTOVMEACOLCUCK-PLNGDYQASA-N,CCCCOC(=O)\C=C/C(O)=O,-0.6677809794
A-3788,5-[(2-hydroxyethyl)amino]-2-methylphenol,YGRFRBUGAPOJDU-UHFFFAOYSA-N,Cc1ccc(NCCO)cc1O,-0.6550553282
A-3789,"p-[4,5-dihydro-4-[[2-methoxy-5-methyl-4-[[2-(sulphooxy)ethyl]sulphonyl]phenyl]azo]-3-methyl-5-oxo-1H-pyrazol-1-yl]benzenesulphonic acid, sodium salt",VMRASBDRVJTOLR-UHFFFAOYSA-L,[Na+].[Na+].COc1cc(c(C)cc1N=NC2C(=NN(C2=O)c3ccc(cc3)[S]([O-])(=O)=O)C)[S](=O)(=O)CCO[S]([O-])(=O)=O,-0.2390039262
A-3791,(2S)-4-hydroxypyrrolidine-2-carboxylic acid,PMMYEEVYMWASQN-UHFFFAOYSA-N,OC1CNC(C1)C(O)=O,0.4399221153
A-3793,sodium 4-[(3-amino-4-methylbenzoyl)amino]benzenesulfonate,QJGAGCZWQGHNDW-UHFFFAOYSA-M,[Na+].Cc1ccc(cc1N)C(=O)Nc2ccc(cc2)[S]([O-])(=O)=O,-0.9492775868
A-3794,ethyl 2-methylbut-3-enoate,WDCCXADRWCXXOR-UHFFFAOYSA-N,CCOC(=O)C(C)C=C,-1.5763108557
A-3795,N-methylhydrazinecarbothioamide,PTVZQOAHCSKAAS-UHFFFAOYSA-N,CNC(=S)NN,-0.465572855
A-3798,potassium chloride,WCUXLLCKKVVCTQ-UHFFFAOYSA-M,[Cl-].[K+],0.6777748798
A-3799,naphthalene-2-sulfonic acid,KVBGVZZKJNLNJU-UHFFFAOYSA-N,O[S](=O)(=O)c1ccc2ccccc2c1,0.230443278
A-3804,dimethyl 2-methylenesuccinate,ZWWQRMFIZFPUAA-UHFFFAOYSA-N,COC(=O)CC(=C)C(=O)OC,-0.653770318
A-3805,2-(2-phenoxyethoxy)ethan-1-ol,ZUAURMBNZUCEAF-UHFFFAOYSA-N,OCCOCCOc1ccccc1,-0.7165256146
A-3806,"7-hydroxy-3,7-dimethyloctanal",WPFVBOQKRVRMJB-UHFFFAOYSA-N,CC(CCCC(C)(C)O)CC=O,-0.6921365673
A-3807,N-propylpropan-1-amine,WEHWNAOGRSTTBQ-UHFFFAOYSA-N,CCCNCCC,-0.461082427
A-3808,aniline,PAYRUJLWNCNPSJ-UHFFFAOYSA-N,Nc1ccccc1,-0.4250168953
A-3811,sodium hydrogen-5-sulphoisophthalate,YXTFRJVQOWZDPP-UHFFFAOYSA-M,[Na+].OC(=O)c1cc(cc(c1)[S]([O-])(=O)=O)C(O)=O,0.1093959475
A-3812,"hexasodium 8-{[(2E)-6-chloro-4-[(4-{[(4Z)-6-chloro-4-({8-oxido-6-sulfo-3-sulfonato-7-[(E)-2-(2-sulfonatophenyl)diazen-1-yl]naphthalen-1-yl}imino)-4,5-dihydro-1,3,5-triazin-2-yl]amino}phenyl)amino]-1,2-dihydro-1,3,5-triazin-2-ylidene]amino}-3-sulfo-6-sulfonato-2-[(E)-2-(2-sulfonatophenyl)diazen-1-yl]naphthalen-1-olate",MPEFHPPVCSSFRQ-IGHLAAJMSA-H,[Na+].[Na+].[Na+].[Na+].[Na+].[Na+].[O-][S](=O)(=O)c1cc(Nc2nc(Cl)nc(Nc3ccc(Nc4nc(Cl)nc(Nc5cc(cc6C=C(/C(=N/Nc7ccccc7[S]([O-])(=O)=O)C(=O)c56)[S]([O-])(=O)=O)[S]([O-])(=O)=O)n4)cc3)n2)c8C(=O)C(=N/Nc9ccccc9[S]([O-])(=O)=O)\C(=Cc8c1)[S]([O-])(=O)=O,-0.6303809029
A-3817,methyl(triphenyl)phosphonium bromide,LSEFCHWGJNHZNT-UHFFFAOYSA-M,[Br-].C[P+](c1ccccc1)(c2ccccc2)c3ccccc3,-0.0189230333
A-3819,1-methylpyridinium chloride,QAIGYXWRIHZZAA-UHFFFAOYSA-M,[Cl-].C[n+]1ccccc1,0.4201828891
A-3820,"trisodium 7-{2-[2-(carbamoylamino)-4-{[4-({2-[2-(ethenesulfonyl)ethoxy]ethyl}amino)-6-fluoro-1,3,5-triazin-2-yl]amino}phenyl]diazen-1-yl}naphthalene-1,3,6-trisulfonate",BTCMRMVIDXSNEW-UHFFFAOYSA-K,[Na+].[Na+].[Na+].NC(=O)Nc1cc(Nc2nc(F)nc(NCCOCC[S](=O)(=O)C=C)n2)ccc1N=Nc3cc4c(cc(cc4[S]([O-])(=O)=O)[S]([O-])(=O)=O)cc3[S]([O-])(=O)=O,-0.4145597239
A-3821,2-ethyl-3-methylpyrazine,LNIMMWYNSBZESE-UHFFFAOYSA-N,CCc1nccnc1C,0.4445107883
A-3822,hydroxyazanium chloride,WTDHULULXKLSOZ-UHFFFAOYSA-N,[H+].[Cl-].NO,0.6895503557
A-3825,N-(prop-2-enamidomethyl)prop-2-enamide,ZIUHHBKFKCYYJD-UHFFFAOYSA-N,C=CC(=O)NCNC(=O)C=C,-0.6552426764
A-3830,L-sorbosonic acid,VBUYCZFBVCCYFD-NUNKFHFFSA-N,OC[C@H](O)[C@@H](O)[C@H](O)C(=O)C(O)=O,0.2373207652
A-3831,Methyl morpholine oxide,LFTLOKWAGJYHHR-UHFFFAOYSA-N,C[N+]1([O-])CCOCC1,0.4563099285
A-3832,tris(2-hydroxyethanaminium) citrate,USDOPHAAWSJWLS-UHFFFAOYSA-N,[NH3+]CCO.[NH3+]CCO.[NH3+]CCO.OC(CC([O-])=O)(CC([O-])=O)C([O-])=O,-0.0501601164
A-3833,sodium 2-[(2-aminoethyl)amino]ethanesulfonate,VRRABDXZDGRGPC-UHFFFAOYSA-M,[Na+].NCCNCC[S]([O-])(=O)=O,0.2445359542
A-3834,"trisodium 2-[(E)-2-{4-[(E)-2-{4-[(4-amino-6-chloro-1,3,5-triazin-2-yl)amino]-5-sulfonatonaphthalen-1-yl}diazen-1-yl]-2,5-dimethylphenyl}diazen-1-yl]benzene-1,4-disulfonate",QODWDUXKFKJVCQ-UHFFFAOYSA-K,[Na+].[Na+].[Na+].Cc1cc(N=Nc2cc(ccc2[S]([O-])(=O)=O)[S]([O-])(=O)=O)c(C)cc1N=Nc3ccc(Nc4nc(N)nc(Cl)n4)c5c3cccc5[S]([O-])(=O)=O,-0.3869456913
A-3835,potassium 3-(acryloyloxy)propane-1-sulfonate,VSFOXJWBPGONDR-UHFFFAOYSA-M,[K+].[O-][S](=O)(=O)CCCOC(=O)C=C,1.1562683245
A-3836,"trisodium 1-amino-4-[[3-[[4-chloro-6-[(3-sulphonatophenyl)amino]-1,3,5-triazin-2-yl]amino]-2,4,6-trimethyl-5-sulphonatophenyl]amino]-9,10-dihydro-9,10-dioxoanthracene-2-sulphonate",ZUCXUTRTSQLRCV-UHFFFAOYSA-K,[Na+].[Na+].[Na+].Cc1c(Nc2nc(Cl)nc(Nc3cccc(c3)[S]([O-])(=O)=O)n2)c(C)c(c(C)c1Nc4cc(c(N)c5C(=O)c6ccccc6C(=O)c45)[S]([O-])(=O)=O)[S]([O-])(=O)=O,-0.4244279852
A-3837,"trisodium 1-amino-4-{[3-({4-chloro-6-[(2-sulfonatophenyl)amino]-1,3,5-triazin-2-yl}amino)-2,4,6-trimethyl-5-sulfonatophenyl]amino}-9,10-dioxo-9,10-dihydroanthracene-2-sulfonate",GWZGQKXBZOLBKS-UHFFFAOYSA-K,[Na+].[Na+].[Na+].Cc1c(Nc2nc(Cl)nc(Nc3ccccc3[S]([O-])(=O)=O)n2)c(C)c(c(C)c1Nc4cc(c(N)c5C(=O)c6ccccc6C(=O)c45)[S]([O-])(=O)=O)[S]([O-])(=O)=O,-0.4244279852
A-3842,4-fluoroaniline,KRZCOLNOCZKSDF-UHFFFAOYSA-N,Nc1ccc(F)cc1,-0.5272743845
A-3846,"hexasodium;(3~{Z})-5-[[4-morpholin-4-yl-6-[4-[(~{E})-2-[4-[[4-morpholin-4-yl-6-[[(7~{Z})-8-oxo-7-(phenylhydrazinylidene)-3,6-disulfonatonaphthalen-1-yl]amino]-1,3,5-triazin-2-yl]amino]-2-sulfonatophenyl]ethenyl]-3-sulfonatoanilino]-1,3,5-triazin-2-yl]amino]-4-oxo-3-(phenylhydrazinylidene)naphthalene-2,7-disulfonate",XGUYBIZUGAOMJN-NSVLGCOKSA-H,C1N(CCOC1)C2=NC(=NC(=N2)NC3=C4C(=O)/C(=N/NC5=CC=CC=C5)/C(=CC4=CC(=C3)S(=O)(=O)[O-])S(=O)(=O)[O-])NC6=CC(=C(C=C6)/C=C/C7=C(C=C(C=C7)NC8=NC(=NC(=N8)N9CCOCC9)NC1=C2C(=O)/C(=N/NC3=CC=CC=C3)/C(=CC2=CC(=C1)S(=O)(=O)[O-])S(=O)(=O)[O-])S(=O)(=O)[O-])S(=O)(=O)[O-].[Na+].[Na+].[Na+].[Na+].[Na+].[Na+],-1.144796153
A-3847,3-acetyloxolan-2-one,OMQHDIHZSDEIFH-UHFFFAOYSA-N,CC(=O)C1CCOC1=O,0.3975093207
A-3850,"sodium 3,5-bis(methoxycarbonyl)benzene-1-sulfonate",LLHSEQCZSNZLRI-UHFFFAOYSA-M,[Na+].COC(=O)c1cc(cc(c1)[S]([O-])(=O)=O)C(=O)OC,-0.9664819924
A-3852,sodium chloride,FAPWRFPIFSIZLT-UHFFFAOYSA-M,[Na+].[Cl-],0.7343267611
A-3853,dilithium pentanedioate,PLYZFCVUMQOYCR-UHFFFAOYSA-L,[Li+].[Li+].[O-]C(=O)CCCC([O-])=O,0.3427540766