ID,Name,InChIKey,SMILES,Solubility
B-3659,"1,2,3,4-tetrachlorobenzene",GBDZXPJXOMHESU-UHFFFAOYSA-N,Clc1ccc(Cl)c(Cl)c1Cl,-4.5619
B-3661,"2,3,4,5-tetrachloronitrobenzene",MTBYTWZDRVOMBR-UHFFFAOYSA-N,[O-][N+](=O)c1cc(Cl)c(Cl)c(Cl)c1Cl,-4.5531
B-3662,m-bromofluorobenzene,QDFKKJYEIFBEFC-UHFFFAOYSA-N,Fc1cccc(Br)c1,-2.6656
B-3663,"2,3,4-trichloronitrobenzene",BGKIECJVXXHLDP-UHFFFAOYSA-N,[O-][N+](=O)c1ccc(Cl)c(Cl)c1Cl,-3.94
B-3664,"2,4,6-trichloronitrobenzene",AEBJDOTVYMITIA-UHFFFAOYSA-N,[O-][N+](=O)c1c(Cl)cc(Cl)cc1Cl,-4.5591
B-3665,trimethylamine,GETQZCLCWQTVFV-UHFFFAOYSA-N,CN(C)C,1.1777
B-3674,"n,n-diethylaniline",GGSUCNLOZRCGPQ-UHFFFAOYSA-N,CCN(CC)c1ccccc1,-3.0278
B-3677,n-methylaniline,AFBPFSWMIHJQDM-UHFFFAOYSA-N,CNc1ccccc1,-1.2803
B-3683,diphenylamine,DMBHHRLKUKUOEG-UHFFFAOYSA-N,N(c1ccccc1)c2ccccc2,-3.5042
B-3684,p-anisaldehyde,ZRSNZINYAWTAHE-UHFFFAOYSA-N,COc1ccc(C=O)cc1,-1.5016
B-3686,"3,5-dichloroaniline",UQRLKWGPEVNVHT-UHFFFAOYSA-N,Nc1cc(Cl)cc(Cl)c1,-2.3153
B-3688,pentachlorophenol,IZUPBVBPLAPZRR-UHFFFAOYSA-N,Oc1c(Cl)c(Cl)c(Cl)c(Cl)c1Cl,-4.2793
B-3690,o-ethylphenol,IXQGCWUGDFDQMF-UHFFFAOYSA-N,CCc1ccccc1O,-1.3594
B-3691,2-methoxyphenol,LHGVFZTZFXWLCP-UHFFFAOYSA-N,COc1ccccc1O,-0.8221
B-3693,"2,6-dimethoxyphenol",KLIDCXVFHGNTTM-UHFFFAOYSA-N,COc1cccc(OC)c1O,-0.9525
B-3694,p-phenylphenol,YXVFYQXJAXKLAK-UHFFFAOYSA-N,Oc1ccc(cc1)c2ccccc2,-3.4812
B-3699,"2,4,5-trichlorophenol",LHJGJYXLEPZJPM-UHFFFAOYSA-N,Oc1cc(Cl)c(Cl)cc1Cl,-2.2163
B-3701,"2,4-dimethylphenol",KUFFULVDNCHOFZ-UHFFFAOYSA-N,Cc1ccc(O)c(C)c1,-1.191
B-3702,p-bromophenol,GZFGOTFRPZRKDS-UHFFFAOYSA-N,Oc1ccc(Br)cc1,-1.092
B-3711,p-methoxyphenol,NWVVVBRKAWDGAB-UHFFFAOYSA-N,COc1ccc(O)cc1,-0.4919
B-3712,"2,4,6-trimethylphenol",BPRYUXCVCCNUFE-UHFFFAOYSA-N,Cc1cc(C)c(O)c(C)c1,-2.055
B-3713,"2,3-dichlorophenol",UMPSXRYVXUPCOS-UHFFFAOYSA-N,Oc1cccc(Cl)c1Cl,-1.6559
B-3716,m-bromophenol,MNOJRWOWILAHAV-UHFFFAOYSA-N,Oc1cccc(Br)c1,-0.8764
B-3717,"3,5-dichlorophenol",VPOMSPZBQMDLTM-UHFFFAOYSA-N,Oc1cc(Cl)cc(Cl)c1,-1.559
B-3718,"2,4-dibromophenol",FAXWFCTVSHEODL-UHFFFAOYSA-N,Oc1ccc(Br)cc1Br,-2.1225
B-3721,benzilic acid,UKXSKSHDVLQNKG-UHFFFAOYSA-N,OC(=O)C(O)(c1ccccc1)c2ccccc2,-2.2092
B-3722,gibberellic acid,IXORZMNAPKEEDV-QTWFBFKQSA-N,CC12[C@@H](O)C=C[C@@]3(OC1=O)[C@@H]4CC[C@]5(O)C[C@]4(CC5=C)[C@H]([C@H]23)C(O)=O,-1.8406
B-3723,chloroacetic acid,FOCAUTSVDIKZOP-UHFFFAOYSA-N,OC(=O)CCl,0.9277
B-3724,isobutyricacid,KQNPFQTWMSNSAP-UHFFFAOYSA-N,CC(C)C(O)=O,0.2777
B-3726,a-bromobutyric acid,YAQLSKVCTLCIIE-UHFFFAOYSA-N,CCC(Br)C(O)=O,-0.3776
B-3727,naphthaleneacetic acid,PRPINYUDVPFIRX-UHFFFAOYSA-N,OC(=O)Cc1cccc2ccccc12,-2.6468
B-3728,indole-3-acetic acid,SEOVTRFCIGRIMH-UHFFFAOYSA-N,OC(=O)Cc1c[nH]c2ccccc12,-2.0674
B-3729,2-ethylbutyric acid,OXQGTIUCKGYOAA-UHFFFAOYSA-N,CCC(CC)C(O)=O,-0.8098
B-3731,2-methyl-4-chlorophenoxyacetic acid,WHKUVVPPKQRRBV-UHFFFAOYSA-N,Cc1cc(Cl)ccc1OCC(O)=O,-2.503
B-3737,pimelic acid,WLJVNTCWHIRURA-UHFFFAOYSA-N,OC(=O)CCCCCC(O)=O,-0.5056
B-3739,undecanoic acid,ZDPHROOEEOARMN-UHFFFAOYSA-N,CCCCCCCCCCC(O)=O,-3.5525
B-3742,phenoxyacetic acid,LCPDWSOZIOUXRV-UHFFFAOYSA-N,OC(=O)COc1ccccc1,-1.1031
B-3743,p-chlorophenoxyacetic acid,SODPIMGUZLOIPE-UHFFFAOYSA-N,OC(=O)COc1ccc(Cl)cc1,-2.29
B-3745,trans-cinnamic acid,WBYWAXJHAXSJNI-VOTSOKGWSA-N,OC(=O)\C=C\c1ccccc1,-2.4335
B-3747,2-ethylhexanoic acid,OBETXYAYXDNJHR-UHFFFAOYSA-N,CCCCC(CC)C(O)=O,-1.858
B-3750,tetradecanoic acid,TUNFSRHWOTWDNC-UHFFFAOYSA-N,CCCCCCCCCCCCCC(O)=O,-5.3293
B-3751,"3,4-dichlorophenoxyacetic acid",SNYRXHULAWEECU-UHFFFAOYSA-N,OC(=O)COc1ccc(Cl)c(Cl)c1,-2.6846
B-3752,o-chlorophenoxyacetic acid,OPQYFNRLWBWCST-UHFFFAOYSA-N,OC(=O)COc1ccccc1Cl,-2.1637
B-3754,"cinnamic acid, p-methoxy-",AFDXODALSZRGIH-QPJJXVBHSA-N,COc1ccc(\C=C\C(O)=O)cc1,-2.3984
B-3757,"3,5-dichlorobenzoic acid",CXKCZFDUOYMOOP-UHFFFAOYSA-N,OC(=O)c1cc(Cl)cc(Cl)c1,-3.1137
B-3758,"3,4-dichlorobenzoic acid",VPHHJAOJUJHJKD-UHFFFAOYSA-N,OC(=O)c1ccc(Cl)c(Cl)c1,-3.495
B-3762,1-napthoic acid,LNETULKMXZVUST-UHFFFAOYSA-N,OC(=O)c1cccc2ccccc12,-3.3015
B-3763,thiophene-3-carboxylic acid,YNVOMSDITJMNET-UHFFFAOYSA-N,OC(=O)c1cscc1,-1.4743
B-3764,2-furoic acid,SMNDYUVBFMFKNZ-UHFFFAOYSA-N,OC(=O)c1occc1,-0.4802
B-3765,2-iodobenzoic acid,CJNZAXGUTKBIHP-UHFFFAOYSA-N,OC(=O)c1ccccc1I,-2.7308
B-3766,2-naphthoic acid,UOBYKYZJUGYBDK-UHFFFAOYSA-N,OC(=O)c1ccc2ccccc2c1,-3.5639
B-3768,m-toluic acid,GPSDUZXPYCFOSQ-UHFFFAOYSA-N,Cc1cccc(c1)C(O)=O,-2.1428
B-3771,p-methoxybenzoic acid,ZEYHEAKUIGZSGI-UHFFFAOYSA-N,COc1ccc(cc1)C(O)=O,-2.458
B-3772,o-toluic acid,ZWLPBLYKEWSWPD-UHFFFAOYSA-N,Cc1ccccc1C(O)=O,-2.0621
B-3776,m-fluorobenzoic acid,MXNBDFWNYRNIBH-UHFFFAOYSA-N,OC(=O)c1cccc(F)c1,-1.9704
B-3777,p-fluorobenzoic acid,BBYDXOIZLAWGSL-UHFFFAOYSA-N,OC(=O)c1ccc(F)cc1,-2.0673
B-3778,m-chlorobenzoic acid,LULAYUGMBFYYEX-UHFFFAOYSA-N,OC(=O)c1cccc(Cl)c1,-2.5415
B-3779,cumic acid,CKMXAIVXVKGGFM-UHFFFAOYSA-N,CC(C)c1ccc(cc1)C(O)=O,-3.0364
B-3782,m-bromobenzoic acid,VOIZNVUXCQLQHS-UHFFFAOYSA-N,OC(=O)c1cccc(Br)c1,-2.699
B-3783,p-bromobenzoic acid,TUXYZHVUPGXXQG-UHFFFAOYSA-N,OC(=O)c1ccc(Br)cc1,-3.5251
B-3784,3-iodobenzoic acid,KVBWBCRPWVKFQT-UHFFFAOYSA-N,OC(=O)c1cccc(I)c1,-3.2706
B-3785,4-iodobenzoic acid,GHICCUXQJBDNRN-UHFFFAOYSA-N,OC(=O)c1ccc(I)cc1,-3.9631
B-3789,"2,2-dimethyl-1-propanol",KPSSIOMAKSHJJG-UHFFFAOYSA-N,CC(C)(C)CO,-0.4012
B-3792,2-butanol,BTANRVKWQNVYAZ-UHFFFAOYSA-N,CCC(C)O,0.3877
B-3793,benzhydrol,QILSFLSDHQAZET-UHFFFAOYSA-N,OC(c1ccccc1)c2ccccc2,-2.5494
B-3794,benzyl alcohol,WVDDGKGOMKODPV-UHFFFAOYSA-N,OCc1ccccc1,-0.4319
B-3795,cyclohexanol,HPXRVTGHNJAIIH-UHFFFAOYSA-N,OC1CCCCC1,-0.3774
B-3797,1-heptanol,BBMCTIGTTCKYKF-UHFFFAOYSA-N,CCCCCCCO,-1.8425
B-3801,3-phenylpropanol,VAJVDSVGBWFCLW-UHFFFAOYSA-N,OCCCc1ccccc1,-1.3798
B-3804,2-octanol,SJWFXCIHNDVPSH-UHFFFAOYSA-N,CCCCCCC(C)O,-2.0655
B-3808,2-heptanol,CETWDUZRCINIHU-UHFFFAOYSA-N,CCCCCC(C)O,-1.5507
B-3809,3-pentanol,AQIXEPGDORPWBJ-UHFFFAOYSA-N,CCC(O)CC,-0.2334
B-3810,p-methyl benzyl alcohol,KMTDMTZBNYGUNX-UHFFFAOYSA-N,Cc1ccc(CO)cc1,-1.1999
B-3811,4-heptanol,YVBCULSIZWMTFY-UHFFFAOYSA-N,CCCC(O)CCC,-1.3931
B-3812,3-heptanol,RZKSECIXORKHQS-UHFFFAOYSA-N,CCCCC(O)CC,-1.4631
B-3813,4-methylcyclohexanol,MQWCXKGKQLNYQG-UHFFFAOYSA-N,CC1CCC(O)CC1,-0.8815
B-3815,3-hexanol,ZOCHHNOQQHDWHG-UHFFFAOYSA-N,CCCC(O)CC,-0.8025
B-3816,2-hexanol,QNVRIHYSUZMSGM-UHFFFAOYSA-N,CCCCC(C)O,-0.8726
B-3818,"2,6-dichlorobenzyl alcohol",WKKHCCZLKYKUDN-UHFFFAOYSA-N,OCc1c(Cl)cccc1Cl,-2.1019
B-3824,methyl bromide,GZUXJHMPEANEGY-UHFFFAOYSA-N,CBr,-0.7956
B-3828,bromoethane,RDHPKYGYEGBMSE-UHFFFAOYSA-N,CCBr,-1.086
B-3831,iodoethane,HVTICUPFWKNHNG-UHFFFAOYSA-N,CCI,-1.6009
B-3833,methylene iodide,NZZFYRREKKOMAT-UHFFFAOYSA-N,ICI,-2.3345
B-3834,2-chloropropane,ULYZAYCEDJDHCC-UHFFFAOYSA-N,CC(C)Cl,-1.4037
B-3835,"1,1-dichloroethane",SCYULBFZEHDVBN-UHFFFAOYSA-N,CC(Cl)Cl,-1.2913
B-3837,dichlorofluoromethane,UMNKXPULIDJLSU-UHFFFAOYSA-N,FC(Cl)Cl,-0.7383
B-3839,trifluoromethane,XPDWGBQVDMORPB-UHFFFAOYSA-N,FC(F)F,-1.2334
B-3840,trichlorofluoromethane,CYRMSUTZVYGINF-UHFFFAOYSA-N,FC(Cl)(Cl)Cl,-2.0965
B-3841,pentachloroethane,BNIXVQGCZULYKV-UHFFFAOYSA-N,ClC(Cl)C(Cl)(Cl)Cl,-2.6248
B-3842,"1,1,2-trichlorotrifluoroethane",AJDIZQLSFPQPEY-UHFFFAOYSA-N,FC(F)(Cl)C(F)(Cl)Cl,-3.0423
B-3845,"1,1,2,2-tetrachloroethane",QPFMBZIOSGYJDE-UHFFFAOYSA-N,ClC(Cl)C(Cl)Cl,-1.7536
B-3849,bromocyclohexane,AQNQQHJNRPDOQV-UHFFFAOYSA-N,BrC1CCCCC1,-2.2943
B-3853,1-bromopentane,YZWKKMVJZFACSU-UHFFFAOYSA-N,CCCCCBr,-3.0753
B-3854,1-bromohexane,MNDIARAMWBIKFW-UHFFFAOYSA-N,CCCCCCBr,-3.8078
B-3855,"1,3-dichloropropane",YHRUOJUYPBUZOS-UHFFFAOYSA-N,ClCCCCl,-1.6137
B-3860,1-bromoheptane,LSXKDWGTSHCFPP-UHFFFAOYSA-N,CCCCCCCBr,-4.431
B-3861,1-chloroheptane,DZMDPHNGKBEVRE-UHFFFAOYSA-N,CCCCCCCCl,-3.9957
B-3862,1-iodoheptane,LMHCYRULPLGEEZ-UHFFFAOYSA-N,CCCCCCCI,-4.8102
B-3865,fufural,HYBBIBNJHNGZAN-UHFFFAOYSA-N,O=Cc1occc1,-0.0962
B-3870,piperonal,SATCULPHIDQDRE-UHFFFAOYSA-N,O=Cc1ccc2OCOc2c1,-1.6324
B-3873,o-nitrobenzaldehyde,CMWKITSNTDAEDT-UHFFFAOYSA-N,[O-][N+](=O)c1ccccc1C=O,-1.8138
B-3874,p-nitrobenzaldehyde,BXRFQSNOROATLV-UHFFFAOYSA-N,[O-][N+](=O)c1ccc(C=O)cc1,-1.8101
B-3885,ethyl methacrylate,SUPCQIBBMFXVTL-UHFFFAOYSA-N,CCOC(=O)C(C)=C,-1.3251
B-3886,"methacrylic acid, i-butyl ester",RUMACXVDVNRZJZ-UHFFFAOYSA-N,CC(C)COC(=O)C(C)=C,-2.039
B-3890,"n-methylcarbamic acid, et ester",SURZCVYFPAXNGN-UHFFFAOYSA-N,CCOC(=O)NC,0.8255
B-3901,diethyl succinate,DKMROQRQHGEIOW-UHFFFAOYSA-N,CCOC(=O)CCC(=O)OCC,-0.96
B-3906,butyl benzoate,XSIFPSYPOVKYCO-UHFFFAOYSA-N,CCCCOC(=O)c1ccccc1,-3.4801
B-3907,benzyl acetate,QUKGYYKBILRGFE-UHFFFAOYSA-N,CC(=O)OCc1ccccc1,-1.6853
B-3911,acetoacetic ester,XYIBRDXRRQCHLP-UHFFFAOYSA-N,CCOC(=O)CC(C)=O,-0.073
B-3912,methyl propionate,RJUFJBKOKNCXHH-UHFFFAOYSA-N,CCC(=O)OC,-0.1498
B-3914,di-i-propyl phthalate,QWDBCIAVABMJPP-UHFFFAOYSA-N,CC(C)OC(=O)c1ccccc1C(=O)OC(C)C,-2.8773
B-3916,"ethanol, 2-bromo-, acetate",RGHQKFQZGLKBCF-UHFFFAOYSA-N,CC(=O)OCCBr,-0.6737
B-3921,3-pentanone,FDPIMTJIUBPUKL-UHFFFAOYSA-N,CCC(=O)CC,-0.253
B-3927,5-methyl-2-hexanone,FFWSICBKRCICMR-UHFFFAOYSA-N,CC(C)CCC(C)=O,-1.3252
B-3931,3-methyl-2-butanone,SYBYTAAJFKOIEJ-UHFFFAOYSA-N,CC(C)C(C)=O,-0.1513
B-3933,2-decanone,ZAJNGDIORYACQU-UHFFFAOYSA-N,CCCCCCCCC(C)=O,-3.3085
B-3938,"b,b,b-trichloro-t-butanol",OSASVXMJTNOKOY-UHFFFAOYSA-N,CC(C)(O)C(Cl)(Cl)Cl,-1.346
B-3939,"2,2,2-trichloroethanol",KPWDGTGXUYRARH-UHFFFAOYSA-N,OCC(Cl)(Cl)Cl,-0.2537
B-3940,benzonitrile,JFDZBHWFFUWGJE-UHFFFAOYSA-N,N#Cc1ccccc1,-1.7123
B-3941,propionitrile,FVSKHRXBFJPNKK-UHFFFAOYSA-N,CCC#N,0.2718
B-3942,acrylonitrile,NLHHRLWOUZZQLW-UHFFFAOYSA-N,C=CC#N,0.1474
B-3943,butyronitrile,KVNRLNFWIYMESJ-UHFFFAOYSA-N,CCCC#N,-0.321
B-3946,"2,6-dichlorobenzonitrile",YOYAIZYFCNQIRF-UHFFFAOYSA-N,Clc1cccc(Cl)c1C#N,-3.9803
B-3950,1-octene,KWKAKUADMBZCLK-UHFFFAOYSA-N,CCCCCCC=C,-4.4373
B-3952,isononene,JRZJOMJEPLMPRA-UHFFFAOYSA-N,CCCCCCCC=C,-5.052
B-3953,cycloheptatriene,CHVJITGCYZJHLR-UHFFFAOYSA-N,C1C=CC=CC=C1,-2.1721
B-3954,trans-2-butene,IAQRGUVFOMOMEM-ARJAWSKDSA-N,C\C=C/C,-1.9302
B-3955,"1,4-pentadiene",QYZLKGVUSQXAMU-UHFFFAOYSA-N,C=CCC=C,-2.0866
B-3956,1-hexene,LIKMAJRDDDTEIG-UHFFFAOYSA-N,CCCCC=C,-3.2261
B-3957,"1,5-hexadiene",PYGSKMBEVAICCR-UHFFFAOYSA-N,C=CCCC=C,-2.6867
B-3958,1-heptene,ZGEGCLOFRBLKSE-UHFFFAOYSA-N,CCCCCC=C,-3.732
B-3960,"1,4-cyclohexadiene",UVJHQYIOXKWHFD-UHFFFAOYSA-N,C1C=CCC=C1,-2.0587
B-3961,3-methylindole,ZFRKQXVRDFCRJG-UHFFFAOYSA-N,Cc1c[nH]c2ccccc12,-2.4206
B-3963,1h-benzotriazole,QRUDEWIWKLJBPS-UHFFFAOYSA-N,[nH]1nc2ccccc2n1,-0.7794
B-3964,benzo(b)thiophene,FCEHBMOGCRZNNI-UHFFFAOYSA-N,s1ccc2ccccc12,-3.0138
B-3966,pyrrole,KAESVJOAVNADME-UHFFFAOYSA-N,[nH]1cccc1,-0.1734
B-3971,indazole,BAXOFTOLAUCFNW-UHFFFAOYSA-N,[nH]1ncc2ccccc12,-2.1554
B-3972,benzoxazole,BCMCBBGGLRIHSE-UHFFFAOYSA-N,o1cnc2ccccc12,-1.1548
B-3973,indane,PQNFLJBBNBOBRQ-UHFFFAOYSA-N,C1Cc2ccccc2C1,-3.0351
B-3974,2-methylfuran,VQKFNUFAXTZWDK-UHFFFAOYSA-N,Cc1occc1,-1.4372
B-3975,2-(methoxymethyl)-5-no2 furan,JXUMCVDPMJWGSI-UHFFFAOYSA-N,COCc1oc(cc1)[N+]([O-])=O,-1.1548
B-3976,2-methylbenaimidazole,LDZYRENCLPUXAX-UHFFFAOYSA-N,Cc1[nH]c2ccccc2n1,-1.9598
B-3977,2-methylthiobenzothiazole,UTBVIMLZIRIFFR-UHFFFAOYSA-N,CSc1sc2ccccc2n1,-3.1614
B-3978,3-methylthiophene,QENGPZGAWFQWCZ-UHFFFAOYSA-N,Cc1cscc1,-2.3899
B-3979,2-ethylthiophene,JCCCMAAJYSNBPR-UHFFFAOYSA-N,CCc1sccc1,-2.5846
B-3981,ethylenethiourea,PDQAZBWRQCGBEV-UHFFFAOYSA-N,S=C1NCCN1,-0.7083
B-3983,"1,1-difluoroethene",BQCIDUSAKPWEOX-UHFFFAOYSA-N,FC(F)=C,-0.7061
B-3984,hexachlorocyclopentadiene,VUNCWTMEJYMOOR-UHFFFAOYSA-N,ClC1=C(Cl)C(Cl)(Cl)C(=C1Cl)Cl,-5.1805
B-3986,hexachlorobutadiene,RWNKSTSCBHKHTB-UHFFFAOYSA-N,ClC(Cl)=C(Cl)C(Cl)=C(Cl)Cl,-4.9111
B-3987,3-bromo-1-propene,BHELZAPQIKSEDF-UHFFFAOYSA-N,BrCC=C,-1.4995
B-3992,4-bromo-1-butene,DMAYBPBPEUFIHJ-UHFFFAOYSA-N,BrCCC=C,-2.2473
B-3995,1-methylnaphthalene,QPUYECUOLPXSFR-UHFFFAOYSA-N,Cc1cccc2ccccc12,-3.7413
B-3996,1-chloronaphthalene,JTPNRXUCIXHOKM-UHFFFAOYSA-N,Clc1cccc2ccccc12,-3.9706
B-3999,2-methylnaphthalene,QIMMUPPBPVKWKM-UHFFFAOYSA-N,Cc1ccc2ccccc2c1,-3.762
B-4000,2-chloronaphthalene,CGYGETOMCSJHJU-UHFFFAOYSA-N,Clc1ccc2ccccc2c1,-4.143
B-4001,1-naphthylamine,RUFPHBVGCFYCNW-UHFFFAOYSA-N,Nc1cccc2ccccc12,-1.9255
B-4002,2-naphthol,JWAZRIHNYRIHIV-UHFFFAOYSA-N,Oc1ccc2ccccc2c1,-2.2809
B-4003,1-isothiocyanonaphthalene,JBDOSUUXMYMWQH-UHFFFAOYSA-N,S=C=Nc1cccc2ccccc12,-4.6022
B-4004,"1,4-dimethylnaphthalene",APQSQLNWAIULLK-UHFFFAOYSA-N,Cc1ccc(C)c2ccccc12,-4.1369
B-4006,"1,3-dimethylnapthalene",QHJMFSMPSZREIF-UHFFFAOYSA-N,Cc1cc(C)c2ccccc2c1,-4.2907
B-4008,"2,6-dimethylnaphthalene",YGYNBBAUIYTWBF-UHFFFAOYSA-N,Cc1ccc2cc(C)ccc2c1,-4.8927
B-4010,"2,3,6-trimethylnaphthalene",UNBZRJCHIWTUHB-UHFFFAOYSA-N,Cc1ccc2cc(C)c(C)cc2c1,-5.0007
B-4011,2-ethylnaphthalene,RJTJVVYSTUQWNI-UHFFFAOYSA-N,CCc1ccc2ccccc2c1,-4.2901
B-4012,1-ethylnaphthalene,ZMXIYERNXPIYFR-UHFFFAOYSA-N,CCc1cccc2ccccc12,-4.1644
B-4014,1-naphthalenemethanol,PBLNHHSDYFYZNC-UHFFFAOYSA-N,OCc1cccc2ccccc12,-1.7444
B-4016,dibenzo-p-dioxin,NFBOHOGPQUYFRF-UHFFFAOYSA-N,O1c2ccccc2Oc3ccccc13,-5.3106
B-4017,1-chlorodibenzo-p-dioxin,VGGGRWRBGXENKI-UHFFFAOYSA-N,Clc1cccc2Oc3ccccc3Oc12,-5.7196
B-4018,2-chlorodibenzo-p-dioxin,GIUGGRUEPHPVNR-UHFFFAOYSA-N,Clc1ccc2Oc3ccccc3Oc2c1,-5.8359
B-4019,2-nitrotoluene,PLAZTCDQAHEYBI-UHFFFAOYSA-N,Cc1ccccc1[N+]([O-])=O,-2.3243
B-4020,2-nitroanisole,CFBYEGUGFPZCNF-UHFFFAOYSA-N,COc1ccccc1[N+]([O-])=O,-1.9572
B-4023,"1,3,5-trinitrobenzene",UATJOMSPNYCXIX-UHFFFAOYSA-N,[O-][N+](=O)c1cc(cc(c1)[N+]([O-])=O)[N+]([O-])=O,-2.8846
B-4024,"1,3-dinitrobenzene",WDCYWAQPCXBPJA-UHFFFAOYSA-N,[O-][N+](=O)c1cccc(c1)[N+]([O-])=O,-2.4989
B-4026,p-nitroanisole,BNUHAJGCKIQFGE-UHFFFAOYSA-N,COc1ccc(cc1)[N+]([O-])=O,-2.4142
B-4027,p-dinitrobenzene,FYFDQJRXFWGIBS-UHFFFAOYSA-N,[O-][N+](=O)c1ccc(cc1)[N+]([O-])=O,-3.3867
B-4028,"2,4,6-trinitrotoluene",SPSSULHKWOKEEL-UHFFFAOYSA-N,Cc1c(cc(cc1[N+]([O-])=O)[N+]([O-])=O)[N+]([O-])=O,-3.2423
B-4030,o-dinitrobenzene,IZUKQUVSCNEFMJ-UHFFFAOYSA-N,[O-][N+](=O)c1ccccc1[N+]([O-])=O,-3.1017
B-4031,m-nitroanisole,WGYFINWERLNPHR-UHFFFAOYSA-N,COc1cccc(c1)[N+]([O-])=O,-2.4861
B-4032,"1,3-dino2 2-methyl benzene",XTRDKALNCIHHNI-UHFFFAOYSA-N,Cc1c(cccc1[N+]([O-])=O)[N+]([O-])=O,-3.0003
B-4033,"1,2-dino2 4-methyl benzene",INYDMNPNDHRJQJ-UHFFFAOYSA-N,Cc1ccc(c(c1)[N+]([O-])=O)[N+]([O-])=O,-3.2604
B-4034,o-ethyl carbamate (urethane),JOYRKODLDBILNP-UHFFFAOYSA-N,CCOC(N)=O,0.7314
B-4035,acrylamide,HRPVXLWXLXDGHG-UHFFFAOYSA-N,NC(=O)C=C,0.9544
B-4037,butyramide,DNSISZSEWVHGLH-UHFFFAOYSA-N,CCCC(N)=O,0.2721
B-4041,"glycerol 1,3-dinitrate",ASIGVDLTBLZXNC-UHFFFAOYSA-N,OC(CO[N+]([O-])=O)CO[N+]([O-])=O,-0.366
B-4042,1-nitrobutane,NALZTFARIYUCBY-UHFFFAOYSA-N,CCCC[N+]([O-])=O,-1.3506
B-4043,1-nitropentane,BVALZCVRLDMXOQ-UHFFFAOYSA-N,CCCCC[N+]([O-])=O,-1.9548
B-4044,ethylene glycol dinitrate,UQXKXGWGFRWILX-UHFFFAOYSA-N,[O-][N+](=O)OCCO[N+]([O-])=O,-1.3495
B-4045,1-pentyne,IBXNCJKFFQIKKY-UHFFFAOYSA-N,CCCC#C,-1.6374
B-4046,diethyl ether,RTZKZFJDLAIYFH-UHFFFAOYSA-N,CCOCC,-0.0889
B-4048,di(n-propyl) ether,POLCUAVZOMRGSN-UHFFFAOYSA-N,CCCOCCC,-1.3192
B-4050,2-hexyloxyethanol,UPGSWASWQBLSKZ-UHFFFAOYSA-N,CCCCCCOCCO,-1.1694
B-4051,"1,2-dibutyoxyethane",GDXHBFHOEYVPED-UHFFFAOYSA-N,CCCCOCCOCCCC,-1.9402
B-4054,tetrahydropyran,DHXVGJBLRPWPCS-UHFFFAOYSA-N,C1CCOCC1,-0.031
B-4055,di-n-butyl ether,DURPTKYDGMDSBL-UHFFFAOYSA-N,CCCCOCCCC,-2.6376
B-4058,ethrane [haloether],JPGQOUSTVILISH-UHFFFAOYSA-N,FC(F)OC(F)(F)C(F)Cl,-1.5162
B-4059,isoflurane,PIWKPBJCKXDKJR-UHFFFAOYSA-N,FC(F)OC(Cl)C(F)(F)F,-1.6157
B-4060,n-nitrosodiethylamine,WBNQDOYYEUMPFS-UHFFFAOYSA-N,CCN(CC)N=O,0.0161
B-4061,diphenylnitrosamine,UBUCNCOMADRQHX-UHFFFAOYSA-N,O=NN(c1ccccc1)c2ccccc2,-3.7531
B-4063,2-nitroso-1-naphthol,SYUYTOYKQOAVDW-UHFFFAOYSA-N,Oc1c(ccc2ccccc12)N=O,-2.5395
B-4064,di-i-propylnitrosoamine,AUIKJTGFPFLMFP-UHFFFAOYSA-N,CC(C)N(N=O)C(C)C,-1.0006
B-4065,n-nitrosodipropylamine,YLKFDHTUAUWZPQ-UHFFFAOYSA-N,CCCN(CCC)N=O,-1.0006
B-4066,n-nitrosodibutylamine,YGJHZCLPZAZIHH-UHFFFAOYSA-N,CCCCN(CCCC)N=O,-2.0955
B-4067,n-nitrosoethyl-n-butylamine,ZGMCNGHHUQZNIH-UHFFFAOYSA-N,CCCCN(CC)N=O,-1.0354
B-4068,n-nitroso-n-methylbutylamine,PKTSCJXWLVREKX-UHFFFAOYSA-N,CCCCN(C)N=O,-0.6996
B-4069,n-methyl-n-nitrosoethamine,RTDCJKARQCRONF-UHFFFAOYSA-N,CCN(C)N=O,0.5321
B-4071,4-bromobiphenyl,PKJBWOWQJHHAHG-UHFFFAOYSA-N,Brc1ccc(cc1)c2ccccc2,-5.5526
B-4072,"4-methyl-1,1'-biphenyl",ZZLCFHIKESPLTH-UHFFFAOYSA-N,Cc1ccc(cc1)c2ccccc2,-4.6185
B-4073,"3,3'-dichlorobiphenyl",KTXUOWUHFLBZPW-UHFFFAOYSA-N,Clc1cccc(c1)c2cccc(Cl)c2,-5.7983
B-4074,"4,4'-dichlorobiphenyl",YTBRNEUEFCNVHC-UHFFFAOYSA-N,Clc1ccc(cc1)c2ccc(Cl)cc2,-6.5561
B-4076,2-chlorobiphenyl,LAXBNTIAOJWAOP-UHFFFAOYSA-N,Clc1ccccc1c2ccccc2,-4.5917
B-4081,"3,4-dichlorobiphenyl",ZGHQUYZPMWMLBM-UHFFFAOYSA-N,Clc1ccc(cc1Cl)c2ccccc2,-6.3899
B-4083,"2,2'-dichlorobiphenyl",JAYCNKDKIKZTAF-UHFFFAOYSA-N,Clc1ccccc1c2ccccc2Cl,-5.0813
B-4085,"2,2',6,6'-pcb",PXAGFNRKXSYIHU-UHFFFAOYSA-N,Clc1cccc(Cl)c1c2c(Cl)cccc2Cl,-7.3898
B-4086,"2,3-dichlorobiphenyl",XOMKZKJEJBZBJJ-UHFFFAOYSA-N,Clc1cccc(c2ccccc2)c1Cl,-5.3498
B-4088,"2,3,4,5,6-pcb",GGMPTLAAIUQMIE-UHFFFAOYSA-N,Clc1c(Cl)c(Cl)c(c2ccccc2)c(Cl)c1Cl,-7.9107
B-4089,"2,3'-pcb",ZHBBDTRJIVXKEX-UHFFFAOYSA-N,Clc1cccc(c1)c2ccccc2Cl,-5.5851
B-4090,"2',3,4,4',5'-pcb",IUTPYMGCWINGEY-UHFFFAOYSA-N,Clc1ccc(cc1Cl)c2cc(Cl)c(Cl)cc2Cl,-7.3867
B-4091,"2,3',4,4'-tetrachlorobiphenyl",RKLLTEAEZIJBAU-UHFFFAOYSA-N,Clc1ccc(c(Cl)c1)c2ccc(Cl)c(Cl)c2,-6.8995
B-4092,"2,3',4',5-pcb",KENZYIHFBRWMOD-UHFFFAOYSA-N,Clc1ccc(Cl)c(c1)c2ccc(Cl)c(Cl)c2,-6.8526
B-4093,"2,4,4',5-pcb",TULCXSBAPHCWCF-UHFFFAOYSA-N,Clc1ccc(cc1)c2cc(Cl)c(Cl)cc2Cl,-7.7699
B-4094,"2,3,4,4'-pcb",XLDBTRJKXLKYTC-UHFFFAOYSA-N,Clc1ccc(cc1)c2ccc(Cl)c(Cl)c2Cl,-6.8754
B-4096,"2,4-dichlorobiphenyl",WEJZHZJJXPXXMU-UHFFFAOYSA-N,Clc1ccc(c(Cl)c1)c2ccccc2,-5.2878
B-4099,"2,5-dichlorobiphenyl",KKQWHYGECTYFIA-UHFFFAOYSA-N,Clc1ccc(Cl)c(c1)c2ccccc2,-5.2993
B-4100,"2,4'-dichlorobiphenyl",UFNIBRDIUNVOMX-UHFFFAOYSA-N,Clc1ccc(cc1)c2ccccc2Cl,-5.2803
B-4102,"2,2',3,4,4',5'-hexachlorobiphenyl",RPUMZMSNLZHIGZ-UHFFFAOYSA-N,Clc1ccc(c(Cl)c1Cl)c2cc(Cl)c(Cl)cc2Cl,-8.3813
B-4106,hexabromobiphenyl,PTJQVJQAZSLKJO-UHFFFAOYSA-N,Brc1ccc(c(Br)c1Br)c2ccc(Br)c(Br)c2Br,-7.7563
B-4108,"2,2',4-trichlorobiphenyl",YKKYCYQDUUXNLN-UHFFFAOYSA-N,Clc1ccc(c(Cl)c1)c2ccccc2Cl,-6.4902
B-4109,"2,4,5,2',5'-pcb",LAHWLEDBADHJGA-UHFFFAOYSA-N,Clc1ccc(Cl)c(c1)c2cc(Cl)c(Cl)cc2Cl,-7.3263
B-4110,"2,2',3,5',6-pcb",GXNNLIMMEXHBKV-UHFFFAOYSA-N,Clc1ccc(Cl)c(c1)c2c(Cl)ccc(Cl)c2Cl,-7.1895
B-4111,"2,2',4,4',5-pentachlorobiphenyl",LMQJBFRGXHMNOX-UHFFFAOYSA-N,Clc1ccc(c(Cl)c1)c2cc(Cl)c(Cl)cc2Cl,-7.9503
B-4113,"2,3,3',4',6-pentachlorobiphenyl",ARXHIJMGSIYYRZ-UHFFFAOYSA-N,Clc1ccc(cc1Cl)c2c(Cl)ccc(Cl)c2Cl,-7.6499
B-4115,"2,2',3,3',6,6'-hexachlorobiphenyl",FZFUUSROAHKTTF-UHFFFAOYSA-N,Clc1ccc(Cl)c(c1Cl)c2c(Cl)ccc(Cl)c2Cl,-7.9032
B-4116,"2,2',6-pcb",MVXIJRBBCDLNLX-UHFFFAOYSA-N,Clc1ccccc1c2c(Cl)cccc2Cl,-5.9003
B-4117,"2,4',6-trichlorobiphenyl",IHIDFKLAWYPTKB-UHFFFAOYSA-N,Clc1ccc(cc1)c2c(Cl)cccc2Cl,-6.2095
B-4118,"2,2',3'-pcb",XVIZMMSINIOIQP-UHFFFAOYSA-N,Clc1cccc(c1Cl)c2ccccc2Cl,-5.944
B-4119,"2,3',5-pcb",ONNCPBRWFSKDMQ-UHFFFAOYSA-N,Clc1cccc(c1)c2cc(Cl)ccc2Cl,-6.0077
B-4121,"2',3,4-trichlorobiphenyl",RIMXLXBUOQMDHV-UHFFFAOYSA-N,Clc1ccc(cc1Cl)c2ccccc2Cl,-6.287
B-4122,"3,4,4'-trichlorobiphenyl",YZANRISAORXTHU-UHFFFAOYSA-N,Clc1ccc(cc1)c2ccc(Cl)c(Cl)c2,-6.5541
B-4123,"2,2',3,3'-tetrachlorobiphenyl",VTLYHLREPCPDKX-UHFFFAOYSA-N,Clc1cccc(c1Cl)c2cccc(Cl)c2Cl,-7.2722
B-4124,"2,2',3,5'-tetrachlorobiphenyl",ALDJIKXAHSDLLB-UHFFFAOYSA-N,Clc1ccc(Cl)c(c1)c2cccc(Cl)c2Cl,-6.4654
B-4127,"2,2',3,4-tetrachlorobiphenyl",SEWHDNLIHDBVDZ-UHFFFAOYSA-N,Clc1ccc(c(Cl)c1Cl)c2ccccc2Cl,-6.8299
B-4128,"2,2',3,5,5'-pentachlorobiphenyl",CRCBRZBVCDKPGA-UHFFFAOYSA-N,Clc1ccc(Cl)c(c1)c2cc(Cl)cc(Cl)c2Cl,-7.8201
B-4129,"2,2',3,3',5,6'-hexachlorobiphenyl",UUTNFLRSJBQQJM-UHFFFAOYSA-N,Clc1cc(Cl)c(Cl)c(c1)c2c(Cl)ccc(Cl)c2Cl,-7.8218
B-4130,"2,2',3,3',4,5-hexachlorobiphenyl",VQQKIXKPMJTUMP-UHFFFAOYSA-N,Clc1cccc(c1Cl)c2cc(Cl)c(Cl)c(Cl)c2Cl,-8.4206
B-4131,benzamide,KXDAEFPNCMNJSK-UHFFFAOYSA-N,NC(=O)c1ccccc1,-0.953
B-4132,"2-methyl-1,4-naphthoquinone",MJVAVZPDRWSRRC-UHFFFAOYSA-N,CC1=CC(=O)c2ccccc2C1=O,-3.0319