ID,Name,InChIKey,SMILES,Solubility
A-2871,potassium benzoate,XAEFZNCEHLXOMS-UHFFFAOYSA-M,[K+].[O-]C(=O)c1ccccc1,0.4872673501
A-2872,1-benzyl-3-carbamoylpyridin-1-ium chloride,XLYNVJJFQHWCEU-UHFFFAOYSA-N,[Cl-].NC(=O)c1ccc[n+](Cc2ccccc2)c1,0.2936103731
A-2873,"4-[(3S)-3-ethenyl-3,7-dimethylocta-1,6-dienyl]phenol",LFYJSSARVMHQJB-QIXNEVBVSA-N,CC(C)=CCC[C@@](C)(C=C)\C=C\c1ccc(O)cc1,-6.3370173812
A-2874,sodium oxidooxy-oxoborane hydrate,MDGXUEVTGARGDK-UHFFFAOYSA-M,O.[Na+].[O-]OB=O,-0.823100201
A-2875,(3-methoxy-3-methylbutyl) acetate,RYNQKSJRFHJZTK-UHFFFAOYSA-N,COC(C)(C)CCOC(C)=O,-0.4390291979
A-2876,Chromic phosphate,IKZBVTPSNGOVRJ-UHFFFAOYSA-K,[Cr+3].[O-][P]([O-])([O-])=O,0.4859956397
A-2879,"disodium 2-amino-4,6-dinitrophenol 4-nitroaniline 8-{2-[(1E)-2-oxido-4-oxocyclohexa-2,5-dien-1-ylidene]hydrazin-1-yl}-3,6-disulfonaphthalen-1-olate iron",VKGDLXPXGUTJRE-JEZQZZQZSA-L,[Na+].[Na+].[Fe].Nc1ccc(cc1)[N+]([O-])=O.Nc2cc(cc(c2O)[N+]([O-])=O)[N+]([O-])=O.OC/3=CC(=O)C=CC3=N/Nc4cc(cc5cc(cc(O)c45)[S]([O-])(=O)=O)[S]([O-])(=O)=O,-1.3075465248
A-2880,"octasodium 2,2'-{1,4-phenylenebis[imino(6-chloro-1,3,5-triazine-4,2-diyl)imino(8-hydroxy-3,6-disulfonatonaphthalene-7,1-diyl)diazene-2,1-diyl]}dinaphthalene-1,5-disulfonate",ODAJTFUSCNWRHZ-UHFFFAOYSA-F,[Na+].[Na+].[Na+].[Na+].[Na+].[Na+].[Na+].[Na+].Oc1c(Nc2nc(Cl)nc(Nc3ccc(Nc4nc(Cl)nc(Nc5c(O)c6c(cc(cc6N=Nc7ccc8c(cccc8[S]([O-])(=O)=O)c7[S]([O-])(=O)=O)[S]([O-])(=O)=O)cc5[S]([O-])(=O)=O)n4)cc3)n2)c(cc9cc(cc(N=Nc%10ccc%11c(cccc%11[S]([O-])(=O)=O)c%10[S]([O-])(=O)=O)c19)[S]([O-])(=O)=O)[S]([O-])(=O)=O,-0.634868411
A-2881,benzyldimethyltetradecylazanium chloride,OCBHHZMJRVXXQK-UHFFFAOYSA-M,[Cl-].CCCCCCCCCCCCCC[N+](C)(C)Cc1ccccc1,-0.9531217854
A-2882,nickel(2+) difluoride,DBJLJFTWODWSOF-UHFFFAOYSA-L,[F-].[F-].[Ni++],-0.3833170773
A-2885,"(2,5-dioxoimidazolidin-4-yl)urea",POJWUDADGALRAB-UHFFFAOYSA-N,NC(=O)NC1NC(=O)NC1=O,-1.5087824857
A-2887,disodium 7-benzamido-4-hydroxy-3-[(E)-2-{4-[(E)-2-(4-sulfonatophenyl)diazen-1-yl]phenyl}diazen-1-yl]naphthalene-2-sulfonate,OTPBDPKSNGORHR-ATQPHANLSA-L,[Na+].[Na+].[O-][S](=O)(=O)c1ccc(cc1)N=Nc2ccc(N\N=C\3C(=O)c4ccc(NC(=O)c5ccccc5)cc4C=C3[S]([O-])(=O)=O)cc2,-2.1566764476
A-2888,sodium 7-amino-8-[(E)-2-[2-(benzenesulfonyl)phenyl]diazen-1-yl]-3-sulfonaphthalen-1-olate,BGMJITJZTOJVQD-UHFFFAOYSA-M,[Na+].[O-][S](=O)(=O)C1=CC(=O)C2=C(NNc3ccccc3[S](=O)(=O)c4ccccc4)C(=N)C=CC2=C1,-2.0888316761
A-2889,bis(tetrakis(hydroxymethyl)phosphanium) sulfate,YIEDHPBKGZGLIK-UHFFFAOYSA-L,OC[P+](CO)(CO)CO.OC[P+](CO)(CO)CO.[O-][S]([O-])(=O)=O,1.9675126996
A-2891,oxetan-2-one,VEZXCJBBBCKRPI-UHFFFAOYSA-N,O=C1CCO1,0.7104893861
A-2892,potassium {[(3-methylbutyl)sulfanyl]carbonyl}sulfanide,CMXOFNZFIJEFDA-UHFFFAOYSA-M,[K+].CC(C)CCOC([S-])=S,0.2378897232
A-2893,N-phenyl-N-(piperidin-4-yl)propanamide,PMCBDBWCQQBSRJ-UHFFFAOYSA-O,CCC(=O)N(C1CC[NH2+]CC1)c2ccccc2,-0.8352255084
A-2894,sodium 2-(morpholin-4-yl)ethane-1-sulfonate,IRHWMYKYLWNHTL-UHFFFAOYSA-M,[Na+].[O-][S](=O)(=O)CCN1CCOCC1,0.1885297454
A-2895,"1,3-dihydroxypropan-2-yl octanoate 2,3-dihydroxypropyl octanoate",GHBFNMLVSPCDGN-UHFFFAOYSA-N,CCCCCCCC(=O)OCC(O)CO,0.1794741305
A-2896,trisodium bis[2-hydroxy-5-nitro-3-[[2-oxo-1-[(phenylamino)carbonyl]propyl]azo]benzenesulphonato(3-)]cobaltate(3-),YZBZIKJBLDYACB-UHFFFAOYSA-H,[Na+].[Na+].[Na+].[Co+3].CC(=O)\C(=N/Nc1cc(cc(c1[O-])[S]([O-])(=O)=O)[N+]([O-])=O)C(=O)[N-]c2ccccc2.CC(=O)\C(=N/Nc3cc(cc(c3[O-])[S]([O-])(=O)=O)[N+]([O-])=O)C(=O)[N-]c4ccccc4,-0.4747040271
A-2897,"disodium 4-amino-5-hydroxy-3-[(E)-2-(4-nitrophenyl)diazen-1-yl]-6-[(E)-2-phenyldiazen-1-yl]naphthalene-2,7-disulfonate",HKBVRFLHNUEVRO-DWTBGCDMSA-L,[Na+].[Na+].Nc1c(N=Nc2ccc(cc2)[N+]([O-])=O)c(cc3C=C(\C(=N/Nc4ccccc4)C(=O)c13)[S]([O-])(=O)=O)[S]([O-])(=O)=O,-1.2800595004
A-2898,lithium(1+) ion benzoate,LDJNSLOKTFFLSL-UHFFFAOYSA-M,[Li+].[O-]C(=O)c1ccccc1,0.3909106219
A-2901,"3-[(1R,3R)-3-[(dimethylcarbamoylamino)methyl]-3,5,5-trimethylcyclohexyl]-1,1-dimethylurea",UZEZQRZYPITAFY-WBMJQRKESA-N,CN(C)C(=O)NC[C@@]1(C)C[C@@H](CC(C)(C)C1)NC(=O)N(C)C,-1.8938187529
A-2902,disodium 7-[(E)-2-(6-amino-1-hydroxy-3-sulfonatonaphthalen-2-yl)diazen-1-yl]-4-hydroxy-3-[(E)-2-phenyldiazen-1-yl]naphthalene-2-sulfonate,KNZOIDDFJVQVDM-NJXRNGNASA-L,[Na+].[Na+].Nc1ccc2C(=O)C(=N/Nc3ccc4C(=O)C(=N/Nc5ccccc5)\C(=Cc4c3)[S]([O-])(=O)=O)/C(=Cc2c1)[S]([O-])(=O)=O,-2.2101305551
A-2904,2-[(carbamoylmethyl)(carboxymethyl)amino]acetic acid,QZTKDVCDBIDYMD-UHFFFAOYSA-M,NC(=O)C[NH+](CC([O-])=O)CC([O-])=O,-1.7635818574
A-2906,calcium cyanoazanediide,STRTXDFFNXSZQB-UHFFFAOYSA-N,[Ca++].NC#N,-0.4460963217
A-2907,3-[(2-carboxyethyl)sulfanyl]propanoic acid,ODJQKYXPKWQWNK-UHFFFAOYSA-N,OC(=O)CCSCCC(O)=O,-0.7991431977
A-2908,N-Butylphosphorothioic triamide,HEPPIYNOUFWEPP-UHFFFAOYSA-N,CCCCN[P](N)(N)=S,-0.7730339165
A-2910,"trisodium 5-({4-chloro-6-[(2-methylphenyl)amino]-1,3,5-triazin-2-yl}amino)-4-hydroxy-3-[(E)-2-(2-sulfonatophenyl)diazen-1-yl]naphthalene-2,7-disulfonate",GBFBZNVXLZXZMP-GTHSLJRASA-K,[Na+].[Na+].[Na+].Cc1ccccc1Nc2nc(Cl)nc(Nc3cc(cc4C=C(/C(=N/Nc5ccccc5[S]([O-])(=O)=O)C(=O)c34)[S]([O-])(=O)=O)[S]([O-])(=O)=O)n2,-0.4572403676
A-2911,hydrazine dihydrochloride,BIVUUOPIAYRCAP-UHFFFAOYSA-N,[H+].[Cl-].NN,1.5956288145
A-2912,sodium 4-[(E)-2-(2-hydroxynaphthalen-1-yl)diazen-1-yl]benzene-1-sulfonate,CQPFMGBJSMSXLP-UHFFFAOYSA-M,[Na+].Oc1ccc2ccccc2c1N=Nc3ccc(cc3)[S]([O-])(=O)=O,-1.1158578961
A-2913,C.i. Direct blue 80,FTGXCLZZPPMCHU-UHFFFAOYSA-F,[Na+].[Na+].[Na+].[Na+].[Cu++].[Cu++].[O-]c1cc(ccc1N=Nc2c([O-])c(cc3cc(ccc23)[S]([O-])(=O)=O)[S]([O-])(=O)=O)c4ccc(N=Nc5c([O-])c(cc6cc(ccc56)[S]([O-])(=O)=O)[S]([O-])(=O)=O)c([O-])c4,-1.6074287478
A-2915,"4-{2-[(2E)-5-[bis(propan-2-yl)amino]-3-methyl-2,3-dihydro-1,3,4-thiadiazol-2-ylidene]hydrazin-1-ylidene}-N,N-dimethylcyclohexa-2,5-dien-1-iminium methyl sulfate",MLTFWXODZCFGQN-UHFFFAOYSA-M,CO[S]([O-])(=O)=O.CC(C)N(C(C)C)c1sc(N=Nc2ccc(cc2)N(C)C)[n+](C)n1,-1.2596984381
A-2916,disodium 8-(phenylamino)-5-[[4-[(5-sulphonatonaphthyl)azo]naphthyl]azo]naphthalenesulphonate,OLPWJTQWWFWEFS-UHFFFAOYSA-L,[Na+].[Na+].[O-][S](=O)(=O)c1cccc2c(cccc12)N=Nc3ccc(N=Nc4ccc(Nc5ccccc5)c6c4cccc6[S]([O-])(=O)=O)c7ccccc37,-1.4631185388
A-2917,"lithium(1+) ion 4-[(E)-2-(5-amino-3-methyl-1-phenyl-1H-pyrazol-4-yl)diazen-1-yl]-2,5-dichlorobenzene-1-sulfonate",BVMYXDOVMKUHFQ-RPHAVLPSSA-M,[Li+].CC1=NN(C(=N)/C1=N/Nc2cc(Cl)c(cc2Cl)[S]([O-])(=O)=O)c3ccccc3,-1.2370685249
A-2918,4-methyl-2-(2-methylpropyl)oxan-4-ol,YVSNOTITPICPTB-UHFFFAOYSA-N,CC(C)CC1CC(C)(O)CCO1,2.1376816201
A-2920,disodium 8-[[4-[[(4-methylphenyl)sulphonyl]oxy]phenyl]azo]-5-[[4-[(4-nitro-2-sulphonatophenyl)amino]phenyl]azo]naphthalene-1-sulphonate,BXMJSZZPKAWJHR-UHFFFAOYSA-L,[Na+].[Na+].Cc1ccc(cc1)[S](=O)(=O)Oc2ccc(cc2)N=Nc3ccc(N=Nc4ccc(Nc5ccc(cc5[S]([O-])(=O)=O)[N+]([O-])=O)cc4)c6ccc(cc36)[S]([O-])(=O)=O,-1.5709847474
A-2921,"2,4,6-trimethylbenzene-1,3-diamine",ZVDSMYGTJDFNHN-UHFFFAOYSA-N,Cc1cc(C)c(N)c(C)c1N,-0.8207163555
A-2922,"disodium 4-amino-3,6-bis[(E)-2-{4-[(E)-2-(2,4-diaminophenyl)diazen-1-yl]phenyl}diazen-1-yl]-5-hydroxynaphthalene-2,7-disulfonate",WYURLZIZBYCORX-DMVGOSKESA-L,[Na+].[Na+].Nc1ccc(N=Nc2ccc(N\N=C\3C(=O)c4c(N)c(N=Nc5ccc(cc5)N=Nc6ccc(N)cc6N)c(cc4C=C3[S]([O-])(=O)=O)[S]([O-])(=O)=O)cc2)c(N)c1,-1.5687181444
A-2924,tempone,WSGDRFHJFJRSFY-UHFFFAOYSA-N,CC1(C)CC(=O)CC(C)(C)N1[O],0.1034125496
A-2925,"disodium 4-amino-3-[2-(4-{4-[2-(2,4-diaminophenyl)diazen-1-yl]benzenesulfonamido}phenyl)diazen-1-yl]-5-hydroxy-6-(2-phenyldiazen-1-yl)naphthalene-2,7-disulfonate",GLNHIAPTFHWQKY-UHFFFAOYSA-L,[Na+].[Na+].Nc1ccc(N=Nc2ccc(cc2)[S](=O)(=O)Nc3ccc(cc3)N=Nc4c(N)c5c(O)c(N=Nc6ccccc6)c(cc5cc4[S]([O-])(=O)=O)[S]([O-])(=O)=O)c(N)c1,-0.6029811942
A-2927,4-methylphenol,IWDCLRJOBJJRNH-UHFFFAOYSA-N,Cc1ccc(O)cc1,-0.7015479053
A-2928,"sodium 1-amino-4-(cyclohexylamino)-9,10-dioxo-9,10-dihydroanthracene-2-sulfonate",DJDYMAHXZBQZKH-UHFFFAOYSA-M,[Na+].Nc1c(cc(NC2CCCCC2)c3C(=O)c4ccccc4C(=O)c13)[S]([O-])(=O)=O,-1.2963650985
A-2930,cytidine 3'-(dihydrogen phosphate),IERHLVCPSMICTF-UHFFFAOYSA-N,NC1=NC(=O)N(C=C1)C2OC(CO[P](O)(O)=O)C(O)C2O,-1.1987753523
A-2932,"sodium 5-[(2,4-dinitrophenyl)amino]-2-(phenylamino)benzene-1-sulfonate",KKBFCPLWFWQNFB-UHFFFAOYSA-M,[Na+].[O-][N+](=O)c1ccc(Nc2ccc(Nc3ccccc3)c(c2)[S]([O-])(=O)=O)c(c1)[N+]([O-])=O,-2.1991373631
A-2933,methyl 2-aminobenzoate,VAMXMNNIEUEQDV-UHFFFAOYSA-N,COC(=O)c1ccccc1N,-1.7338470451
A-2934,"sodium 1-amino-9,10-dioxo-4-(phenylamino)-9,10-dihydroanthracene-2-sulfonate",LIKZXCROQGHXTI-UHFFFAOYSA-M,[Na+].Nc1c(cc(Nc2ccccc2)c3C(=O)c4ccccc4C(=O)c13)[S]([O-])(=O)=O,-2.1738960877
A-2935,"sodium 4-chloro-3-{4-[(E)-2-[5-chloro-2-(2-chlorophenoxy)phenyl]diazen-1-yl]-3-methyl-5-oxo-4,5-dihydro-1H-pyrazol-1-yl}benzene-1-sulfonate",OCJDFNKUOCKZCE-UHFFFAOYSA-M,[Na+].CC1=NN(C(=O)C1N=Nc2cc(Cl)ccc2Oc3ccccc3Cl)c4cc(ccc4Cl)[S]([O-])(=O)=O,-2.3162215849
A-2937,N-ethyl(propan-2-yloxy)carbothioamide,KIACEOHPIRTHMI-UHFFFAOYSA-N,CCNC(=S)OC(C)C,-1.7447887835
A-2940,"ethyl 3,4-dihydroxybenzoate",KBPUBCVJHFXPOC-UHFFFAOYSA-N,CCOC(=O)c1ccc(O)c(O)c1,-1.8556550616
A-2942,"benzene-1,3,5-tricarboxylic acid",QMKYBPDZANOJGF-UHFFFAOYSA-N,OC(=O)c1cc(cc(c1)C(O)=O)C(O)=O,-1.9422995529
A-2943,"3-(3,4-Dimethoxyphenyl)propanenitrile",LECKQPWCSYMCDR-UHFFFAOYSA-N,COc1ccc(CCC#N)cc1OC,-1.9013447833
A-2944,"sodium 2,5-dichloro-4-[4-[[2-[(ethylphenylamino)sulphonyl]phenyl]azo]-4,5-dihydro-3-methyl-5-oxo-1H-pyrazol-1-yl]benzenesulphonate",MOBJCMJALNXKIW-UHFFFAOYSA-M,[Na+].CC1=NN(C(=O)C1N=Nc2cccc(c2)[S](=O)(=O)NCCc3ccccc3)c4cc(Cl)c(cc4Cl)[S]([O-])(=O)=O,-2.4299809947
A-2945,"disodium 3-[(E)-2-[2,4-bis(2-methylphenoxy)phenyl]diazen-1-yl]-4-hydroxy-5-(4-methylbenzenesulfonamido)naphthalene-2,7-disulfonate",NCGGOCRZQAFNTH-HWXVZJLZSA-L,[Na+].[Na+].Cc1ccc(cc1)[S](=O)(=O)Nc2cc(cc3C=C(C(=N/Nc4ccc(Oc5ccccc5C)cc4Oc6ccccc6C)\C(=O)c23)[S]([O-])(=O)=O)[S]([O-])(=O)=O,-2.5669690772
A-2946,"tetrasodium 4-hydroxy-5-({4-[({4-[(8-hydroxy-3,6-disulfonato-1-naphthyl)diazenyl]-2-methoxy-5-methylphenyl}carbamoyl)amino]-5-methoxy-2-methylphenyl}diazenyl)naphthalene-2,7-disulfonate",WNQPPENQFWLADQ-UHFFFAOYSA-J,[Na+].[Na+].[Na+].[Na+].COc1cc(N=Nc2cc(cc3cc(cc(O)c23)[S]([O-])(=O)=O)[S]([O-])(=O)=O)c(C)cc1NC(=O)Nc4cc(C)c(cc4OC)N=Nc5cc(cc6cc(cc(O)c56)[S]([O-])(=O)=O)[S]([O-])(=O)=O,-2.6903136873
A-2947,"octahydrocyclopenta[c]pyrrole-1,3-dione",QCWDCTDYSDJKTP-UHFFFAOYSA-N,O=C1NC(=O)C2CCCC12,0.1553573817
A-2948,2-(cyclohexylamino)ethane-1-sulfonic acid,TXWKJOVDGFRVOG-UHFFFAOYSA-M,[Na+].[O-][S](=O)(=O)CCNC1CCCCC1,-0.0784185571
A-2949,disodium sulfate,PMZURENOXWZQFD-UHFFFAOYSA-L,[Na+].[Na+].[O-][S]([O-])(=O)=O,0.1263337648
A-2950,"(8R,9S,13S,14S,17S)-17-hydroxy-13-methyl-2,4,6,7,8,9,11,12,14,15,16,17-dodecahydro-1H-cyclopenta[a]phenanthren-3-one",BAZGVDKAIHZPOH-ZBRFXRBCSA-N,C[C@]12CC[C@H]3[C@@H](CCC4=C3CCC(=O)C4)[C@@H]1CC[C@@H]2O,-4.947028744
A-2951,"2,2-bis(bromomethyl)propane-1,3-diol",CHUGKEQJSLOLHL-UHFFFAOYSA-N,OCC(CO)(CBr)CBr,-1.1304017512
A-2953,"Pyridinium, 1,1'-[(6,13-dichloro-4,11-disulfo-3,10-triphenodioxazinediyl)bis[imino-2,1-ethanediylimino[6-[(2,5-disulfophenyl)amino]-1,3,5-triazine-4,2-diyl]]]bis[3-carboxy-, dihydroxide, bis(inner salt), hexasodium salt",QXRUQIRSGRTEHZ-UHFFFAOYSA-H,[Na+].[Na+].[Na+].[Na+].[Na+].[Na+].[O-]C(=O)c1ccc[n+](c1)c2nc(NCCNc3ccc4N=C5C(=C6Oc7c(ccc(NCCNc8nc(Nc9cc(ccc9[S]([O-])(=O)=O)[S]([O-])(=O)=O)nc(n8)[n+]%10cccc(c%10)C([O-])=O)c7[S]([O-])(=O)=O)N=C6C(=C5Oc4c3[S]([O-])(=O)=O)Cl)Cl)nc(Nc%11cc(ccc%11[S]([O-])(=O)=O)[S]([O-])(=O)=O)n2,-0.9522048024
A-2954,sodium 6-[(E)-2-(4-aminophenyl)diazen-1-yl]-5-hydroxynaphthalene-1-sulfonate,AVULUSFAVFJIOG-UGAWPWHASA-M,[Na+].Nc1ccc(N\N=C\2C=Cc3c(cccc3[S]([O-])(=O)=O)C2=O)cc1,-1.2915600389
A-2955,Aescin,AXNVHPCVMSNXNP-AUEPDCJTSA-N,C/C=C(\C)/C(=O)OC1C(C2(C(CC1(C)C)C3=CCC4C5(CCC(C(C5CCC4(C3(CC2O)C)C)(C)CO)OC6C(C(C(C(O6)C(=O)O)OC7C(C(C(C(O7)CO)O)O)O)O)OC8C(C(C(C(O8)CO)O)O)O)C)CO)OC(=O)C,-1.1031036675
A-2956,tin(2+) ion dichloride,AXZWODMDQAVCJE-UHFFFAOYSA-L,[Cl-].[Cl-].[Sn++],-0.0274572689
A-2958,potassium phosphorous acid,UUCFTYONLUTOFU-UHFFFAOYSA-N,[K+].OP(O)O,1.1524094082
A-2959,"disodium 4-nitrobenzene-1,3-diamine 3-amino-4-methoxybenzene-1-sulfonate 3-hydroxybenzen-1-olate copper",HJDUSPQCBUUNBC-UHFFFAOYSA-L,[Na+].[Na+].[Cu].COc1ccc(cc1N)[S]([O-])(=O)=O.Nc2ccc(c(N)c2)[N+]([O-])=O.Oc3cccc([O-])c3,-1.5043501961
A-2960,"tetrasodium 7,7'-[(6-morpholin-4-yl-1,3,5-triazine-2,4-diyl)diimino]bis{4-hydroxy-3-[(4-methoxy-2-sulfonatophenyl)diazenyl]naphthalene-2-sulfonate}",RYOLKKOXNWDTKY-KCQDMBLDSA-J,[Na+].[Na+].[Na+].[Na+].COc1ccc(N\N=C\2C(=O)c3ccc(Nc4nc(Nc5ccc6C(=O)C(=N/Nc7ccc(OC)cc7[S]([O-])(=O)=O)/C(=Cc6c5)[S]([O-])(=O)=O)nc(n4)N8CCOCC8)cc3C=C2[S]([O-])(=O)=O)c(c1)[S]([O-])(=O)=O,-1.8252827514
A-2961,"trisodium 5-oxo-1-(4-sulfonatophenyl)-4-[(E)-2-(4-sulfonatophenyl)diazen-1-yl]-4,5-dihydro-1H-pyrazole-3-carboxylate",UJMBCXLDXJUMFB-UHFFFAOYSA-K,[Na+].[Na+].[Na+].[O-]C(=O)C1=NN(c2ccc(cc2)[S]([O-])(=O)=O)C(=O)C1N=Nc3ccc(cc3)[S]([O-])(=O)=O,-0.5049964012
A-2962,(2S)-2-aminopropanoic acid,QNAYBMKLOCPYGJ-UHFFFAOYSA-N,CC(N)C(O)=O,0.2678986156
A-2966,"disodium 3-[(E)-2-(5-chloro-2-phenoxyphenyl)diazen-1-yl]-4-hydroxy-5-(4-methylbenzenesulfonamido)naphthalene-2,7-disulfonate",UHSRCNCAJFUQHB-RTFAEJQKSA-L,[Na+].[Na+].Cc1ccc(cc1)[S](=O)(=O)Nc2cc(cc3C=C(C(=N/Nc4cc(Cl)ccc4Oc5ccccc5)\C(=O)c23)[S]([O-])(=O)=O)[S]([O-])(=O)=O,-0.6679306861
A-2967,2-[benzyl(tert-butyl)amino]-1-[4-hydroxy-3-(hydroxymethyl)phenyl]ethan-1-one hydrochloride,QXNITHCPVLQQEN-UHFFFAOYSA-N,[H+].[Cl-].CC(C)(C)N(CC(=O)c1ccc(O)c(CO)c1)Cc2ccccc2,-1.3487765491
A-2968,"1,3,3-trimethyl-2-[(1E)-[2-methyl-2-(4-methylphenyl)hydrazin-1-ylidene]methyl]-3H-indol-1-ium chloride",XNBDPEPVMIIATO-UHFFFAOYSA-M,[Cl-].CN(N=CC1=[N+](C)c2ccccc2C1(C)C)c3ccc(C)cc3,-1.3292188053
A-2969,cyclohexanone oxime,VEZUQRBDRNJBJY-UHFFFAOYSA-N,ON=C1CCCCC1,-0.8495729561
A-2970,"hexasodium 4-amino-3,6-bis[(E)-2-[5-({4-chloro-6-[(3-sulfonatophenyl)amino]-1,3,5-triazin-2-yl}amino)-2-sulfonatophenyl]diazen-1-yl]-5-hydroxynaphthalene-2,7-disulfonate",UILQUTBIXJZSTN-NZHDPOKYSA-H,[Na+].[Na+].[Na+].[Na+].[Na+].[Na+].Nc1c(N=Nc2cc(Nc3nc(Cl)nc(Nc4cccc(c4)[S]([O-])(=O)=O)n3)ccc2[S]([O-])(=O)=O)c(cc5C=C(/C(=N/Nc6cc(Nc7nc(Cl)nc(Nc8cccc(c8)[S]([O-])(=O)=O)n7)ccc6[S]([O-])(=O)=O)C(=O)c15)[S]([O-])(=O)=O)[S]([O-])(=O)=O,-0.9572055168
A-2971,(2S)-pyrrolidine-2-carboxylic acid,ONIBWKKTOPOVIA-UHFFFAOYSA-N,OC(=O)C1CCCN1,1.1291356492
A-2972,calcium bis(phosphinate),LITFOGPYONJRNO-UHFFFAOYSA-L,[Ca++].[O-]P=O.[O-]P=O,-0.0326449205
A-2973,azanium; 2-[3-[bis(2-oxido-2-oxoethyl)amino]propyl-(2-oxido-2-oxoethyl)amino]acetate; iron(+3) cation,HXPRIPOCSQBZIN-UHFFFAOYSA-K,[NH4+].[Fe+3].[O-]C(=O)CN(CCCN(CC([O-])=O)CC([O-])=O)CC([O-])=O,0.105005622
A-2975,"disodium 4,4'-bis[(4-anilino-6-methoxy-1,3,5-triazin-2-yl)amino]stilbene-2,2'-disulphonate",BDYOOAPDMVGPIQ-QDBORUFSSA-L,[Na+].[Na+].COc1nc(Nc2ccccc2)nc(Nc3ccc(\C=C\c4ccc(Nc5nc(Nc6ccccc6)nc(OC)n5)cc4[S]([O-])(=O)=O)c(c3)[S]([O-])(=O)=O)n1,-1.7615101482
A-2976,"sodium 7-amino-8-[(E)-2-{4-chloro-3-[(2,4-dimethylphenyl)sulfamoyl]phenyl}diazen-1-yl]-3-sulfonaphthalen-1-olate",NFIWAOOZVZVNHC-UHFFFAOYSA-M,[Na+].Cc1ccc(N[S](=O)(=O)c2cc(NNC3=C4C(=O)C=C(C=C4C=CC3=N)[S]([O-])(=O)=O)ccc2Cl)c(C)c1,-0.6308713175
A-2977,sodium 4-[(2-hydroxy-1-naphthyl)diazenyl]-3-methylbenzenesulfonate,SIHMAENIPOJURU-ZJSKVYKZSA-M,[Na+].Cc1cc(ccc1N\N=C2\C(=O)C=Cc3ccccc23)[S]([O-])(=O)=O,-0.4366004304
A-2980,"disodium 5-acetamido-4-hydroxy-3-[(E)-2-phenyldiazen-1-yl]naphthalene-2,7-disulfonate",YCUAAHNYYJTUJO-PJPLBZAPSA-L,[Na+].[Na+].CC(=O)Nc1cc(cc2C=C(\C(=N/Nc3ccccc3)C(=O)c12)[S]([O-])(=O)=O)[S]([O-])(=O)=O,-0.5866084475
A-2981,"N,N-dimethylcyclohexanamine",SVYKKECYCPFKGB-UHFFFAOYSA-N,CN(C)C1CCCCC1,-0.9774881423
A-2982,dilithium(1+) ion carbonate,XGZVUEUWXADBQD-UHFFFAOYSA-L,[Li+].[Li+].[O-]C([O-])=O,-0.7546423143
A-2983,disodium 6-acetamido-4-hydroxy-3-[(4-{[2-(sulfonatooxy)ethyl]sulfonyl}phenyl)diazenyl]naphthalene-2-sulfonate,AAGPPJSKCWSVCQ-GHEHHKQRSA-L,[Na+].[Na+].CC(=O)Nc1ccc2C=C(\C(=N/Nc3ccc(cc3)[S](=O)(=O)CCO[S]([O-])(=O)=O)C(=O)c2c1)[S]([O-])(=O)=O,-0.6794075026
A-2984,"hydrogen [4-[[4-(diethylamino)phenyl][4-[ethyl(3-sulphonatobenzyl)amino]phenyl]methylene]cyclohexa-2,5-dien-1-ylidene](ethyl)(3-sulphonatobenzyl)ammonium, sodium salt",FJBHGWADYLMEJG-UHFFFAOYSA-M,[Na+].CCN(CC)c1ccc(cc1)[C+](c2ccc(cc2)N(CC)Cc3cccc(c3)[S]([O-])(=O)=O)c4ccc(cc4)N(CC)Cc5cccc(c5)[S]([O-])(=O)=O,-0.7717026899
A-2985,(6-aminohexyl)carbamic acid,HDIHOAXFFROQHR-UHFFFAOYSA-N,NCCCCCCNC(O)=O,-0.0952988049
A-2987,lithium(1+) ion trifluoromethanesulfonate,WDGKXRCNMKPDSD-UHFFFAOYSA-N,[Li].O[S](=O)(=O)C(F)(F)F,0.9030401981
A-2988,amino(imino)methanaminium nitrate,CNUNWZZSUJPAHX-UHFFFAOYSA-N,NC(N)=N.O[N+]([O-])=O,0.0102512628
A-2991,2-(2-ethoxyethoxy)ethyl prop-2-enoate,FTALTLPZDVFJSS-UHFFFAOYSA-N,CCOCCOCCOC(=O)C=C,-0.181251006
A-2993,butanedinitrile,IAHFWCOBPZCAEA-UHFFFAOYSA-N,N#CCCC#N,0.1752408894
A-2994,"disodium 3-[(E)-2-[4-(1-{4-[(E)-2-(1,7-dihydroxy-3-sulfonatonaphthalen-2-yl)diazen-1-yl]-3-methylphenyl}cyclohexyl)-2-methylphenyl]diazen-1-yl]-4,6-dihydroxynaphthalene-2-sulfonate",FEGFQZKEEWPHPY-UHFFFAOYSA-L,[Na+].[Na+].Cc1cc(ccc1NNC2=C(C=C3C=CC(=O)C=C3C2=O)[S]([O-])(=O)=O)C4(CCCCC4)c5ccc(NNC6=C(C=C7C=CC(=O)C=C7C6=O)[S]([O-])(=O)=O)c(C)c5,-0.8547884608
A-2999,benzenesulfonic acid,SRSXLGNVWSONIS-UHFFFAOYSA-N,O[S](=O)(=O)c1ccccc1,0.8489070931
A-3000,xylenesulphonic acid,ZZXDRXVIRVJQBT-UHFFFAOYSA-N,Cc1cccc(c1C)[S](O)(=O)=O,0.7779988658
A-3001,"sodium hydrogen 4-amino-5-hydroxynaphthalene-2,7-disulfonate",QPILZZVXGUNELN-UHFFFAOYSA-M,[Na+].Nc1cc(cc2cc(cc(O)c12)[S]([O-])(=O)=O)[S](O)(=O)=O,-1.476228892
A-3002,oxalic acid,MUBZPKHOEPUJKR-UHFFFAOYSA-N,OC(=O)C(O)=O,0.0790172102
A-3003,potassium trihydrogen diethanedioate,INYYFFJLLWWJOT-UHFFFAOYSA-N,[K].OC(=O)C(O)=O.OC(=O)C(O)=O,-0.3073494259
A-3004,lithium(1+) ion nitrate,IIPYXGDZVMZOAP-UHFFFAOYSA-N,[Li+].[O-][N+]([O-])=O,1.1700973958
A-3005,2-(butylamino)ethan-1-ol,LJDSTRZHPWMDPG-UHFFFAOYSA-N,CCCCNCCO,0.931102034
A-3006,2-(methylamino)ethan-1-ol,OPKOKAMJFNKNAS-UHFFFAOYSA-N,CNCCO,1.1242964559
A-3007,2-aminoethan-1-ol,HZAXFHJVJLSVMW-UHFFFAOYSA-N,NCCO,1.2140725315
A-3008,"N,N-dimethylformamide",ZMXDDKWLCZADIW-UHFFFAOYSA-N,CN(C)C=O,1.1361123296
A-3009,chromium(3+) ion hydroxide sulfate,DSHWASKZZBZKOE-UHFFFAOYSA-K,[OH-].[Cr+3].[O-][S]([O-])(=O)=O,0.7823423727
A-3010,disodium sulfanediide,HYHCSLBZRBJJCH-UHFFFAOYSA-N,[Na+].S,1.2435692985
A-3017,sodium 3-[(E)-2-[5-(diethylsulfamoyl)-2-methoxyphenyl]diazen-1-yl]-4-hydroxynaphthalene-1-sulfonate,AGXNLHROVWJXBE-XHMOQMQQSA-M,[Na+].CCN(CC)[S](=O)(=O)c1ccc(OC)c(N\N=C\2C=C(c3ccccc3C2=O)[S]([O-])(=O)=O)c1,-2.4667539114
A-3018,ethyl N-ethyl-N-phenylcarbamate,XEFYPTRGVWLMHB-UHFFFAOYSA-N,CCOC(=O)N(CC)c1ccccc1,0.8673994761
A-3021,4-(4-hydroxybenzenesulfonyl)phenol,VPWNQTHUCYMVMZ-UHFFFAOYSA-N,Oc1ccc(cc1)[S](=O)(=O)c2ccc(O)cc2,-2.3570247849
A-3024,"1-(2,4-dihydroxy-6-{[(2S,3R,4S,5S,6R)-3,4,5-trihydroxy-6-(hydroxymethyl)oxan-2-yl]oxy}phenyl)-3-(4-hydroxyphenyl)propan-1-one",IOUVKUPGCMBWBT-QNDFHXLGSA-N,OC[C@H]1O[C@@H](Oc2cc(O)cc(O)c2C(=O)CCc3ccc(O)cc3)[C@H](O)[C@@H](O)[C@@H]1O,-2.639897679
A-3025,3-chloro-2-methylaniline,ZUVPLKVDZNDZCM-UHFFFAOYSA-N,Cc1c(N)cccc1Cl,-2.1510663204
A-3027,2-phenylethyl acetate,MDHYEMXUFSJLGV-UHFFFAOYSA-N,CC(=O)OCCc1ccccc1,-2.2317574452
A-3028,5-(dithiolan-3-yl)valeric acid,AGBQKNBQESQNJD-UHFFFAOYSA-N,OC(=O)CCCCC1CCSS1,-2.3750473352
A-3029,2-(2-methylphenoxymethyl)oxirane,KFUSXMDYOPXKKT-UHFFFAOYSA-N,Cc1ccccc1OCC2CO2,-2.2911044462
A-3030,bis(trimethyl(tetradecyl)azanium) oxalate,XNYQOAOGCKKCNI-UHFFFAOYSA-L,CCCCCCCCCCCCCC[N+](C)(C)C.CCCCCCCCCCCCCC[N+](C)(C)C.[O-]C(=O)C([O-])=O,-2.8980709963
A-3034,2-[4-(2-sulfoethyl)piperazin-1-yl]ethane-1-sulfonic acid,OGGAIRCLBMGXCZ-UHFFFAOYSA-M,[Na+].O[S](=O)(=O)CCN1CCN(CC1)CC[S]([O-])(=O)=O,-2.7475939424
A-3035,"5-chloro-1-(piperidin-4-yl)-2,3-dihydro-1H-1,3-benzodiazol-2-one",DOAYWDKFDPSTSV-UHFFFAOYSA-O,Clc1ccc2N(C3CC[NH2+]CC3)C(=O)Nc2c1,-2.6630758608
A-3043,"3,5,5-trimethylhexanal",WTPYRCJDOZVZON-UHFFFAOYSA-N,CC(CC=O)CC(C)(C)C,-2.6759065954
A-3047,"1,2-dichlorobenzene",RFFLAFLAYFXFSW-UHFFFAOYSA-N,Clc1ccccc1Cl,-3.0533857998