ID,Name,InChIKey,SMILES,Solubility
B-3200,sulfometuron (ph 5-7),ZDXMLEQEMNLCQG-UHFFFAOYSA-N,COC(=O)c1ccccc1[S](=O)(=O)NC(=O)Nc2nc(C)cc(C)n2,-3.1742
B-3201,"1,1'-biphenyl, 2,3,3',4-tetrachloro-",ZKGSEEWIVLAUNH-UHFFFAOYSA-N,Clc1cccc(c1)c2ccc(Cl)c(Cl)c2Cl,-6.77
B-3202,"1,1'-biphenyl, 2,3,4',5-tetrachloro-",CITMYAMXIZQCJD-UHFFFAOYSA-N,Clc1ccc(cc1)c2cc(Cl)cc(Cl)c2Cl,-6.77
B-3203,"1,1'-biphenyl, 2,3,3',5,6-pentachloro-",NTKSJAPQYKCFPP-UHFFFAOYSA-N,Clc1cccc(c1)c2c(Cl)c(Cl)cc(Cl)c2Cl,-7.76
B-3204,"2,3,4,4',5-pentachlorobiphenyl",SXZSFWHOSHAKMN-UHFFFAOYSA-N,Clc1ccc(cc1)c2cc(Cl)c(Cl)c(Cl)c2Cl,-7.3102
B-3205,"1,1'-biphenyl, 2,3,4,4',6-pentachloro-",IOVARPVVZDOPGQ-UHFFFAOYSA-N,Clc1ccc(cc1)c2c(Cl)cc(Cl)c(Cl)c2Cl,-7.95
B-3206,"2,3,3',4,4',6-hexachlorobiphenyl",ZQUPQXINXTWCQR-UHFFFAOYSA-N,Clc1ccc(cc1Cl)c2c(Cl)cc(Cl)c(Cl)c2Cl,-7.6505
B-3207,"2,3,3',4',5,6-hexachlorobiphenyl",ZAGRQXMWMRUYRB-UHFFFAOYSA-N,Clc1ccc(cc1Cl)c2c(Cl)c(Cl)cc(Cl)c2Cl,-8.48
B-3208,"1,1'-biphenyl, 2,3,3',4',5',6-hexachloro-",HAZQOLYHFUUJJN-UHFFFAOYSA-N,Clc1ccc(Cl)c(c2cc(Cl)c(Cl)c(Cl)c2)c1Cl,-8.27
B-3209,"2,3,3',5,5',6-hexachlorobiphenyl",ZEATXTCWXKQPHO-UHFFFAOYSA-N,Clc1cc(Cl)cc(c1)c2c(Cl)c(Cl)cc(Cl)c2Cl,-8.2696
B-3210,"1,1'-biphenyl, 2,2',3,4,4',5,6-heptachloro-",DJEUXBQAKBLKPO-UHFFFAOYSA-N,Clc1ccc(c(Cl)c1)c2c(Cl)c(Cl)c(Cl)c(Cl)c2Cl,-8.9706
B-3211,"1,1'-biphenyl, 2,3,3',4,4',5',6-heptachloro-",TVFXBXWAXIMLAQ-UHFFFAOYSA-N,Clc1cc(Cl)c(c2cc(Cl)c(Cl)c(Cl)c2)c(Cl)c1Cl,-9.1
B-3213,"1,1'-biphenyl, 2,2',3,4,4',5,6,6'-octachloro-",JDZUWXRNKHXZFE-UHFFFAOYSA-N,Clc1cc(Cl)c(c(Cl)c1)c2c(Cl)c(Cl)c(Cl)c(Cl)c2Cl,-9.48
B-3214,"1,1'-biphenyl, 2,3,3',4,4',5,5',6-octachloro-",VXXBCDUYUQKWCK-UHFFFAOYSA-N,Clc1cc(cc(Cl)c1Cl)c2c(Cl)c(Cl)c(Cl)c(Cl)c2Cl,-9.6997
B-3215,"1,1'-biphenyl, 2,2',3,4',5,6'-heptachloro-",MMTJWDQKGUNSDK-UHFFFAOYSA-N,Clc1cc(Cl)c(c(Cl)c1)c2c(Cl)c(Cl)cc(Cl)c2Cl,-8.4901
B-3216,"2,5-dibromobenzaldehyde",BQBXKWGMPUCSQV-UHFFFAOYSA-N,Brc1ccc(Br)c(C=O)c1,-3.8003
B-3217,"methanedisulfonic acid, chloro-",JFABEGSTCBAFEC-UHFFFAOYSA-N,O[S](=O)(=O)C(Cl)[S](O)(=O)=O,0.6765
B-3218,bromobutide,WZDDLAZXUYIVMU-UHFFFAOYSA-N,CC(C)(C)C(Br)C(=O)NC(C)(C)c1ccccc1,-4.9455
B-3219,fenpiclonil,FKLFBQCQQYDUAM-UHFFFAOYSA-N,Clc1cccc(c1Cl)c2c[nH]cc2C#N,-4.6937
B-3220,oxabetrinil,WFVUIONFJOAYPK-SDNWHVSQSA-N,N#CC(=N\OCC1OCCO1)/c2ccccc2,-4.0649
B-3221,diclobutrazol isomers,URDNHJIVMYZFRT-UHFFFAOYSA-N,CC(C)(C)C(O)C(Cc1ccc(Cl)cc1Cl)n2cncn2,-4.5619
B-3222,enalapril,GBXSMTUPTTWBMN-XIRDDKMYSA-N,CCOC(=O)[C@H](CCc1ccccc1)N[C@@H](C)C(=O)N2CCC[C@H]2C(O)=O,-1.3609
B-3223,"phosphonic acid, [[4-(2-benzothiazolyl)phenyl]me",FVYRUSCZCWSFLT-UHFFFAOYSA-N,CCO[P](=O)(Cc1ccc(cc1)c2sc3ccccc3n2)OCC,-4.0017
B-3224,"4h-imidazol-4-one, 2-amino-1-ethyl-1,5-dihydro-",LCDGAYYHFKVEAR-UHFFFAOYSA-N,CCN1CC(=O)N=C1N,-0.165
B-3225,tecloftalam,ROZUQUDEWZIBHV-UHFFFAOYSA-N,OC(=O)c1c(Cl)c(Cl)c(Cl)c(Cl)c1C(=O)Nc2cccc(Cl)c2Cl,-4.5051
B-3226,"methanetrisulfonic acid, chloro-",AASRJJKRVOUFBO-UHFFFAOYSA-N,O[S](=O)(=O)C(Cl)([S](O)(=O)=O)[S](O)(=O)=O,0.5366
B-3227,"l-alanine, n-(chloroacetyl)-, ethyl ester",VCQDLEOMZPPOFE-YFKPBYRVSA-N,CCOC(=O)[C@H](C)NC(=O)CCl,-0.4628
B-3228,"benzoic acid, 2-(acetyloxy)-, (methylthio)methyl",YFFMJOPTIBTOJH-UHFFFAOYSA-N,CSCOC(=O)c1ccccc1OC(C)=O,-2.6404
B-3229,"benzoic acid, 2-(acetyloxy)-, (methylsulfinyl)me",ZUYDNEVBJGMSGH-UHFFFAOYSA-N,CC(=O)Oc1ccccc1C(=O)OC[S](C)=O,-1.7824
B-3230,"benzoic acid, 2-(acetyloxy)-, (methylsulfonyl)me",PTLSEGBRIAKFIJ-UHFFFAOYSA-N,CC(=O)Oc1ccccc1C(=O)OC[S](C)(=O)=O,-3.3936
B-3231,2-(2-chlorophenoxy)propanoic acid,ZGWNXHRVUJVMCP-UHFFFAOYSA-N,CC(Oc1ccccc1Cl)C(O)=O,-2.2232
B-3232,quizalofop,ABOOPXYCKNFDNJ-UHFFFAOYSA-N,CC(Oc1ccc(Oc2cnc3cc(Cl)ccc3n2)cc1)C(O)=O,-6.0604
B-3234,flutriafol (pp450),JWUCHKBSVLQQCO-UHFFFAOYSA-N,OC(Cn1cncn1)(c2ccc(F)cc2)c3ccccc3F,-3.3651
B-3235,"2',3,3',4,5-pentachlorobiphenyl",GWOWBISZHLPYEK-UHFFFAOYSA-N,Clc1cccc(c2cc(Cl)c(Cl)c(Cl)c2)c1Cl,-7.4052
B-3236,glufosinate-ammonium,ZBMRKNMTMPPMMK-UHFFFAOYSA-N,[NH4+].C[P](O)(=O)CCC(N)C([O-])=O,0.8397
B-3237,"glycine, n-(n-l-leucyl-l-alanyl)-",WNGVUZWBXZKQES-YUMQZZPRSA-N,CC(C)C[C@H](N)C(=O)N[C@@H](C)C(=O)NCC(O)=O,-0.8953
B-3238,"carbamic acid, ethylmethyl-, ethyl ester",XLPFLCTZNRMTQB-UHFFFAOYSA-N,CCOC(=O)N(C)CC,-0.4189
B-3239,pyraclofos,QHGVXILFMXYDRS-UHFFFAOYSA-N,CCCS[P](=O)(OCC)Oc1cnn(c1)c2ccc(Cl)cc2,-4.0388
B-3241,fluoroglycofenethyl,IPPAUTOBDWNELX-UHFFFAOYSA-N,CCOC(=O)COC(=O)c1cc(Oc2ccc(cc2Cl)C(F)(F)F)ccc1[N+]([O-])=O,-5.8729
B-3242,"2-butanol, 4,4-diethoxy-",PZFICWWBEDKOSI-UHFFFAOYSA-N,CCOC(CC(C)O)OCC,0.0909
B-3243,"4(1h)-pteridinone, hydrazone",IDWVTPLLYFMNEX-UHFFFAOYSA-N,NN=C1N=CNc2nccnc12,-1.8632
B-3244,oxadixyl,UWVQIROCRJWDKL-UHFFFAOYSA-N,COCC(=O)N(N1CCOC1=O)c2c(C)cccc2C,-1.913
B-3245,"3-pyridinecarboxamide, n-hexyl-",QNWFROSVYQTOPU-UHFFFAOYSA-N,CCCCCCNC(=O)c1cccnc1,-2.5221
B-3246,"2,4,6(1h,3h,5h)-pyrimidinetrione, 1-(2,3-dihydro",HZSFDBKBUGUMOD-UHFFFAOYSA-N,CCC1(C(=O)NC(=O)N(CC(O)CO)C1=O)c2ccccc2,-1.7872
B-3247,hexythiazox,XGWIJUOSCAQSSV-VPHXOMNUSA-N,C[C@H]1C(SC(=O)N1C(=O)NC2CCCCC2)c3ccc(Cl)cc3,-5.8487
B-3249,fluazifop-p-butyl,VAIZTNZGPYBOGF-CYBMUJFWSA-N,CCCCOC(=O)[C@@H](C)Oc1ccc(Oc2ccc(cn2)C(F)(F)F)cc1,-5.2826
B-3250,harmony,AHTPATJNIAFOLR-UHFFFAOYSA-N,COC(=O)c1sccc1[S](=O)(=O)NC(=O)Nc2nc(C)nc(OC)n2,-2.2379
B-3251,tetrafluthrin,ZFHGXWPMULPQSE-WTKPLQERSA-N,Cc1c(F)c(F)c(COC(=O)C2C(\C=C(/Cl)C(F)(F)F)C2(C)C)c(F)c1F,-7.3209
B-3252,"butanamide, n,n,2-triethyl-",KLVRKNJSKXACLQ-UHFFFAOYSA-N,CCC(CC)C(=O)N(CC)CC,-1.0876
B-3253,simvastatin,RYMZZMVNJRMUDD-HGQWONQESA-N,CCC(C)(C)C(=O)O[C@H]1C[C@@H](C)C=C2C=C[C@H](C)[C@H](CC[C@@H]3C[C@@H](O)CC(=O)O3)[C@@H]12,-7.1447
B-3254,hexaconazole,STMIIPIFODONDC-UHFFFAOYSA-N,CCCCC(O)(Cn1cncn1)c2ccc(Cl)cc2Cl,-4.2668
B-3255,diafenthiuron,WOWBFOBYOAGEEA-UHFFFAOYSA-N,CC(C)c1cc(Oc2ccccc2)cc(C(C)C)c1NC(=S)NC(C)(C)C,-6.8068
B-3256,etofenprox,YREQHYQNNWYQCJ-UHFFFAOYSA-N,CCOc1ccc(cc1)C(C)(C)COCc2cccc(Oc3ccccc3)c2,-8.5758
B-3259,imazethapyr,XVOKUMIPKHGGTN-UHFFFAOYSA-N,CCc1cnc(C2=NC(C)(C(C)C)C(=O)N2)c(c1)C(O)=O,-2.3153
B-3260,imazamethabenz (isomer mix),FFCCBBNQPIMUJI-UHFFFAOYSA-N,COC(=O)c1ccc(C)cc1C2=NC(C)(C(C)C)C(=O)N2,-2.4599
B-3262,"3-pyridinecarboxamide, n-octyl-",JSIDBRSPTZXMGO-UHFFFAOYSA-N,CCCCCCCCNC(=O)c1cccnc1,-3.0081
B-3263,"3-pyridinecarboxamide, n-nonyl-",GPBKHZUWQWRROQ-UHFFFAOYSA-N,CCCCCCCCCNC(=O)c1cccnc1,-3.1398
B-3264,"3-pyridinecarboxamide, n-decyl-",STKCVSYDRUHCAT-UHFFFAOYSA-N,CCCCCCCCCCNC(=O)c1cccnc1,-3.0765
B-3265,"3-pyridinecarboxamide, n-undecyl-",OEDGRBFONRSXRX-UHFFFAOYSA-N,CCCCCCCCCCCNC(=O)c1cccnc1,-3.0266
B-3266,"3-pyridinecarboxamide, n-dodecyl-",XVQJYCJZQVBVTL-UHFFFAOYSA-N,CCCCCCCCCCCCNC(=O)c1cccnc1,-3.2078
B-3267,clomazone,KIEDNEWSYUYDSN-UHFFFAOYSA-N,CC1(C)CON(Cc2ccccc2Cl)C1=O,-2.3383
B-3268,triasulfuron,XOPFESVZMSQIKC-UHFFFAOYSA-N,COc1nc(C)nc(NC(=O)N[S](=O)(=O)c2ccccc2OCCCl)n1,-4.0989
B-3270,"5,8-quinolinedione, dioxime",SXQRHGCUOZOOAF-UHFFFAOYSA-N,ON=C1C=CC(=NO)c2ncccc12,-3.7998
B-3271,triadimenol (diastereoisomer b),BAZVSMNPJJMILC-OLZOCXBDSA-N,CC(C)(C)[C@H](O)[C@H](Oc1ccc(Cl)cc1)n2cncn2,-3.9524
B-3272,inabenfide,PFDCOZXELJAUTR-UHFFFAOYSA-N,OC(c1ccccc1)c2cc(Cl)ccc2NC(=O)c3ccncc3,-5.5299
B-3273,isoxaben,PMHURSZHKKJGBM-UHFFFAOYSA-N,CCC(C)(CC)c1cc(NC(=O)c2c(OC)cccc2OC)on1,-5.3694
B-3274,"1-butanol, 3-ethoxy-",UTVOVDXBOIGHTP-UHFFFAOYSA-N,CCOC(C)CCO,-0.3736
B-3275,bifenthrin,OMFRMAHOUUJSGP-UNOMPAQXSA-N,Cc1c(COC(=O)C2C(\C=C(/Cl)C(F)(F)F)C2(C)C)cccc1c3ccccc3,-6.6262
B-3276,benzofenap,JDWQITFHZOBBFE-UHFFFAOYSA-N,Cn1nc(C)c(C(=O)c2ccc(Cl)c(C)c2Cl)c1OCC(=O)c3ccc(C)cc3,-6.5209
B-3277,bensulfuron-methyl (ph7),XMQFTWRPUQYINF-UHFFFAOYSA-N,COC(=O)c1ccccc1C[S](=O)(=O)NC(=O)Nc2nc(OC)cc(OC)n2,-3.534
B-3278,teflubenzuron,CJDWRQLODFKPEL-UHFFFAOYSA-N,Fc1cccc(F)c1C(=O)NC(=O)Nc2cc(Cl)c(F)c(Cl)c2F,-7.3023
B-3279,alanycarb,GMAUQNJOSOMMHI-JXAWBTAJSA-N,CCOC(=O)CCN(Cc1ccccc1)SN(C)C(=O)O\N=C(\C)SC,-4.3005
B-3280,diflufenican,WYEHFWKAOXOVJD-UHFFFAOYSA-N,Fc1ccc(NC(=O)c2cccnc2Oc3cccc(c3)C(F)(F)F)c(F)c1,-6.8969
B-3281,"2-propenoic acid, 3-bromo-2,3-diiodo-",BWTBNELHFHOXGK-UHFFFAOYSA-N,OC(=O)C(I)=C(Br)I,-1.2891
B-3282,uniconazole-p,YNWVFADWVLCOPU-MAUPQMMJSA-N,CC(C)(C)[C@H](O)\C(=C/c1ccc(Cl)cc1)n2cncn2,-4.5403
B-3283,uniconazole,YNWVFADWVLCOPU-MDWZMJQESA-N,CC(C)(C)C(O)\C(=C/c1ccc(Cl)cc1)n2cncn2,-4.5403
B-3284,diniconazole,FBOUIAKEJMZPQG-AWNIVKPZSA-N,CC(C)(C)C(O)\C(=C/c1ccc(Cl)cc1Cl)n2cncn2,-4.9115
B-3285,phosmethylan,MVBGKYGTNGPFHT-UHFFFAOYSA-N,CCCC(=O)N(CS[P](=S)(OC)OC)c1ccccc1Cl,-5.204
B-3286,"8-quinolinecarboxylic acid, 5-nitro-",HXHZCOASPJWXPP-UHFFFAOYSA-N,OC(=O)c1ccc(c2cccnc12)[N+]([O-])=O,-3.1656
B-3287,chlozolinate,IGUYEXXAGBDLLX-UHFFFAOYSA-N,CCOC(=O)C1(C)OC(=O)N(C1=O)c2cc(Cl)cc(Cl)c2,-5.2203
B-3288,"ethanol, 2-[(2-amino-9h-purin-9-yl)methoxy]-",OKQHSIGMOWQUIK-UHFFFAOYSA-N,Nc1ncc2ncn(COCCO)c2n1,-1.0775
B-3289,clomeprop,BDQWWOHKFDSADC-UHFFFAOYSA-N,CC(Oc1ccc(Cl)c(C)c1Cl)C(=O)Nc2ccccc2,-7.0057
B-3290,"1-pentanesulfinothioic acid, s-pentyl ester",UXGUHQNYRZMSQI-UHFFFAOYSA-N,CCCCCS[S](=O)CCCCC,-3.1711
B-3291,"pentanal, 5-methoxy-",KCCMPTAMMUQNSK-UHFFFAOYSA-N,COCCCCC=O,0.4574
B-3292,"benzenemethanol, 2,4-dichloro-, propanoate",ABVWCZFYRJJFFG-UHFFFAOYSA-N,CCC(=O)OCc1ccc(Cl)cc1Cl,-3.0665
B-3293,flusilazole,FQKUGOMFVDPBIZ-UHFFFAOYSA-N,C[Si](Cn1cncn1)(c2ccc(F)cc2)c3ccc(F)cc3,-3.7665
B-3295,esprocarb,BXEHUCNTIZGSOJ-UHFFFAOYSA-N,CCN(C(C)C(C)C)C(=O)SCc1ccccc1,-4.7337
B-3296,primisulfuron-methyl,ZTYVMAQSHCZXLF-UHFFFAOYSA-N,COC(=O)c1ccccc1[S](=O)(=O)NC(=O)Nc2nc(OC(F)F)cc(OC(F)F)n2,-5.152
B-3297,imibenconazole,AGKSTYPVMZODRV-UHFFFAOYSA-N,Clc1ccc(CSC(Cn2cncn2)=Nc3ccc(Cl)cc3Cl)cc1,-5.3842
B-3298,propisochlor,KZNDFYDURHAESM-UHFFFAOYSA-N,CCc1cccc(C)c1N(COC(C)C)C(=O)CCl,-3.1882
B-3299,fluazuron,YOWNVPAUWYHLQX-UHFFFAOYSA-N,Fc1cccc(F)c1C(=O)NC(=O)Nc2ccc(Cl)c(Oc3ncc(cc3Cl)C(F)(F)F)c2,-7.4033
B-3300,"carbamic acid, (3,4-diethoxyphenyl)-, 1-methylet",LNJNFVJKDJYTEU-UHFFFAOYSA-N,CCOc1ccc(NC(=O)OC(C)C)cc1OCC,-4.0022
B-3301,haloxyfop-etotyl,MIJLZGZLQLAQCM-UHFFFAOYSA-N,CCOCCOC(=O)C(C)Oc1ccc(Oc2ncc(cc2Cl)C(F)(F)F)cc1,-5.8739
B-3302,butenachlor,HZDIJTXDRLNTIS-DAXSKMNVSA-N,CCc1cccc(CC)c1N(COC\C=C/C)C(=O)CCl,-4.0287
B-3303,flumiclorac-pentyl,IRECWLYBCAZIJM-UHFFFAOYSA-N,CCCCCOC(=O)COc1cc(N2C(=O)C3=C(CCCC3)C2=O)c(F)cc1Cl,-6.3508
B-3304,dimethenamid,JLYFCTQDENRSOL-UHFFFAOYSA-N,COCC(C)N(C(=O)CCl)c1c(C)scc1C,-2.3614
B-3305,isoxapyrifop,ANFHKXSOSRDDRQ-UHFFFAOYSA-N,CC(Oc1ccc(Oc2ncc(Cl)cc2Cl)cc1)C(=O)N3CCCO3,-4.5922
B-3306,cinmethylin,QMTNOLKHSWIQBE-UHFFFAOYSA-N,CC(C)C12CCC(C)(O1)C(C2)OCc3ccccc3C,-3.6391
B-3307,fluxofenim,UKSLKNUCVPZQCQ-GZTJUZNOSA-N,FC(F)(F)C(=N/OCC1OCCO1)/c2ccc(Cl)cc2,-4.0138
B-3308,"acrylic acid, 2,3-dibromo-3-chloro-",WQSDAEICEKYSPL-UHFFFAOYSA-N,OC(=O)C(Br)=C(Cl)Br,-1.0071
B-3309,"acrylic acid, 3,3-dibromo-2-chloro-",NHSPPJFIJJWVTN-UHFFFAOYSA-N,OC(=O)C(Cl)=C(Br)Br,-0.6873
B-3311,"2-propanol, 1,1-dinitro-",KRCTVRKGIUYGJG-UHFFFAOYSA-N,CC(O)C([N+]([O-])=O)[N+]([O-])=O,0.0789
B-3312,ferimzone,GOWLARCWZRESHU-AQTBWJFISA-N,Cc1cc(C)nc(N\N=C(\C)c2ccccc2C)n1,-3.1959
B-3313,"purine-2,8(3h,9h)-dione, 3-methyl-",RWTDELNZTAXKEW-UHFFFAOYSA-N,CN1C(=O)N=CC2=C1NC(=O)N2,-0.794
B-3314,triadimenol (diastereoisomer a),BAZVSMNPJJMILC-STQMWFEESA-N,CC(C)(C)[C@@H](O)[C@H](Oc1ccc(Cl)cc1)n2cncn2,-3.6786
B-3315,(+)(r)-6-hydroxy-4-methyl-caproaldehyde,UBEQHGSYADUQGL-SSDOTTSWSA-N,C[C@@H](CCO)CCC=O,-1.0732
B-3316,"2(3h)-pteridinone, 3-methyl-",PSYNZCWBYCLDGC-UHFFFAOYSA-N,CN1C=C2N=CC=NC2=NC1=O,-0.9089
B-3317,"5-isobenzofurancarbonitrile, 1,3-dihydro-3-oxo-",SHFPTPKYWROKQJ-UHFFFAOYSA-N,O=C1OCc2ccc(cc12)C#N,-2.7021
B-3318,"1-propanol, 2,2-bis(ethylsulfonyl)-",MKNPCLDRRSFQTC-UHFFFAOYSA-N,CC[S](=O)(=O)C(C)(CO)[S](=O)(=O)CC,-0.1653
B-3319,"benzaldehyde, 2-amino-4-hydroxy-3-methoxy-",PNKIOGYYVJRTML-UHFFFAOYSA-N,COc1c(N)c(C=O)ccc1O,-0.2232
B-3320,"phthalic acid, 4-nitro-, 1-methyl ester",CEEJSCAKNYSVHF-UHFFFAOYSA-M,COC(=O)c1ccc(cc1C([O-])=O)[N+]([O-])=O,-2.0558
B-3321,"glutamic acid, n-(2-cyanoethyl)-",DDTCLMFTBAHLCY-LURJTMIESA-N,OC(=O)CC[C@H](NCCC#N)C(O)=O,-1.3015
B-3322,"barbituric acid, 5-acetonyl-5-ethyl-",MMACXIHIWOQNOV-UHFFFAOYSA-N,CCC1(CC(C)=O)C(=O)NC(=O)NC1=O,-0.7661
B-3323,"nonanoic acid, 2,3-dihydroxy-",ALUALOYLCXZDMJ-UHFFFAOYSA-N,CCCCCCC(O)C(O)C(O)=O,-1.5469
B-3324,quinmerac,ALZOLUNSQWINIR-UHFFFAOYSA-N,Cc1cnc2c(ccc(Cl)c2C(O)=O)c1,-2.9973
B-3325,"isoleucine, n-(2-cyanoethyl)-",SYLKPFKVJHIHES-YUMQZZPRSA-N,CC[C@H](C)[C@H](NCCC#N)C(O)=O,-0.9818
B-3326,"2-pteridinol, 6,7-diethyl-",GSGKUGGVXZDGBA-UHFFFAOYSA-N,CCc1nc2cnc(O)nc2nc1CC,-2.2644
B-3327,"propanoic acid, 2-(cyclohexyloxy)-2-methyl-",OKFRDMBIDGPCCX-UHFFFAOYSA-N,CC(C)(OC1CCCCC1)C(O)=O,-1.0798
B-3328,"hydrocinnamic acid, .beta.-methoxy-",HVLYJUCOMBTMTA-UHFFFAOYSA-N,COC(CC(O)=O)c1ccccc1,-1.6952
B-3329,"cyclohexane-1,3-dione, 2-nitro-5-phenyl-",ZZPALFUTTVIEEB-UHFFFAOYSA-N,[O-][N+](=O)C1C(=O)CC(CC1=O)c2ccccc2,-1.6688
B-3330,"malonamide, 2,2-dihydroxy-n,n'diphenyl-",LBGDJUYHCRTMQV-UHFFFAOYSA-N,OC(O)(C(=O)Nc1ccccc1)C(=O)Nc2ccccc2,-2.4568
B-3331,"barbituric acid, 5-(2-butenyl)-1,5-dimethyl-",FSAOWPPKPPPONF-UHFFFAOYSA-N,CC=CCC1(C)C(=O)NC(=O)N(C)C1=O,-1.5445
B-3332,2-hydroxy-but-3-enoic acid ethyl ester,HMCVHEYVNMVFDP-UHFFFAOYSA-N,CCOC(=O)C(O)C=C,0.3627
B-3333,"pyran, 2,2'-oxybis[tetrahydro-6-methyl-",DVRJCBOAIPILPC-UHFFFAOYSA-N,CC1CCCC(O1)OC2CCCC(C)O2,-1.1083
B-3334,"phosphoric acid, methyl dipropyl ester",KCJPXMHUFVFEGM-UHFFFAOYSA-N,CCCO[P](=O)(OC)OCCC,-0.6592
B-3335,"pyrimido[5,4-d]pyrimidine-2,4,8(3h)-trione, 1,7-",SYYPSBXVMCETKL-UHFFFAOYSA-N,CN1C=NC2=C(N(C)C(=O)N(C)C2=O)C1=O,-1.985
B-3336,"glycine, n-naphthalene-2-sulfonyl)-",MTFDMQASMMCFHB-UHFFFAOYSA-M,[O-]C(=O)CN[S](=O)(=O)c1ccc2ccccc2c1,-2.8497
B-3337,12-butyl-benz[a]anthracene,KJVSEQDCUWFQHF-UHFFFAOYSA-N,CCCCc1c2ccccc2cc3ccc4ccccc4c13,-7.5245
B-3338,"butanoic acid, 2,2-dibromo-",QMHNFKJHFYCNRW-UHFFFAOYSA-N,CCC(Br)(Br)C(O)=O,-0.8722
B-3339,pyrazosulfuron-ethyl,BGNQYGRXEXDAIQ-UHFFFAOYSA-N,CCOC(=O)c1cnn(C)c1[S](=O)(=O)NC(=O)Nc2nc(OC)cc(OC)n2,-4.4561
B-3340,"glycine, n-[n-(2-naphthalenylsulfonyl)glycyl]-",UDUALFJGGCLPRJ-UHFFFAOYSA-N,OC(=O)CNC(=O)CN[S](=O)(=O)c1ccc2ccccc2c1,-2.6954
B-3341,cyproconazole,UFNOUKDBUJZYDE-UHFFFAOYSA-N,CC(C1CC1)C(O)(Cn2cncn2)c3ccc(Cl)cc3,-3.3189
B-3343,cinosulfuron,WMLPCIHUFDKWJU-UHFFFAOYSA-N,COCCOc1ccccc1[S](=O)(=O)NC(=O)Nc2nc(OC)nc(OC)n2,-3.5372
B-3344,cadusafos,KXRPCFINVWWFHQ-UHFFFAOYSA-N,CCO[P](=O)(SC(C)CC)SC(C)CC,-3.0376
B-3345,"acetic acid, (cyclopentyloxy)-",JPUGGGCNNKXYCU-UHFFFAOYSA-N,OC(=O)COC1CCCC1,-0.8471
B-3346,tebupirimfos,AWYOMXWDGWUJHS-UHFFFAOYSA-N,CCO[P](=S)(OC(C)C)Oc1cnc(nc1)C(C)(C)C,-4.7626
B-3347,pyridaben,DWFZBUWUXWZWKD-UHFFFAOYSA-N,CC(C)(C)N1N=CC(=C(Cl)C1=O)SCc2ccc(cc2)C(C)(C)C,-7.483
B-3348,thenylchlor,KDWQYMVPYJGPHS-UHFFFAOYSA-N,COc1ccsc1CN(C(=O)CCl)c2c(C)cccc2C,-4.4689
B-3349,flurtamone,NYRMIJKDBAQCHC-UHFFFAOYSA-N,CNC1=C(C(=O)C(O1)c2ccccc2)c3cccc(c3)C(F)(F)F,-3.9788
B-3350,"propanamide, 2-hydroxy-n-tetradecyl-",BPSSWVRROCFULD-UHFFFAOYSA-N,CCCCCCCCCCCCCCNC(=O)C(C)O,-3.9784
B-3351,methyl (1-phenylsulfonyl) cyclopropane carboxyla,OACLWBSJZSLACO-UHFFFAOYSA-N,COC(=O)C1(CC1)[S](=O)(=O)c2ccccc2,-2.2601
B-3352,dka-24,ZAWPDPLWGKAAHU-UHFFFAOYSA-N,ClC(Cl)C(=O)N(CC=C)CC(=O)NCC=C,-1.0397
B-3354,dithiopyr,YUBJPYNSGLJZPQ-UHFFFAOYSA-N,CSC(=O)c1c(CC(C)C)c(C(=O)SC)c(nc1C(F)F)C(F)(F)F,-5.4575
B-3355,"1,2,4-thiadiazol-5-amine, 3-methoxy-",OJCCUUWVUOCZAA-UHFFFAOYSA-N,COc1nsc(N)n1,-1.2427
B-3356,"1,2,4-thiadiazole, 5-amino-3-ethoxy-",MSMILNFZKAKCKE-UHFFFAOYSA-N,CCOc1nsc(N)n1,-0.6514
B-3357,"1-propanol, 2,3-dimercapto-, 1-acetate",JVYNLQQSMKTICB-UHFFFAOYSA-N,CC(=O)OCC(S)CS,-1.2208
B-3358,"hexanamide, 2-ethylidene-",CBBQHYFBEMUJII-UHFFFAOYSA-N,CCCCC(=CC)C(N)=O,-1.3717
B-3359,"pyrazinamide, n-2-pyrimidinyl-",UKSKIENIGGVZIP-UHFFFAOYSA-N,O=C(Nc1ncccn1)c2cnccn2,-0.3036
B-3361,"3-pyridinecarboxylic acid, nonyl ester",CPDDCIYPNIRWBG-UHFFFAOYSA-N,CCCCCCCCCOC(=O)c1cccnc1,-3.0958
B-3362,fosthiazate,DUFVKSUJRWYZQP-UHFFFAOYSA-N,CCO[P](=O)(SC(C)CC)N1CCSC1=O,-1.4589
B-3363,flumetsulam,RXCPQSJAVKGONC-UHFFFAOYSA-N,Cc1ccn2nc(nc2n1)[S](=O)(=O)Nc3c(F)cccc3F,-3.8248
B-3364,"pyrazinamide, n-(4-methyl-2-pyrimidinyl)-",XSVJUTVNSDRVBW-UHFFFAOYSA-N,Cc1ccnc(NC(=O)c2cnccn2)n1,-0.7308
B-3365,sulcotrione,PQTBTIFWAXVEPB-UHFFFAOYSA-N,C[S](=O)(=O)c1ccc(c(Cl)c1)C(=O)C2C(=O)CCCC2=O,-3.2994
B-3366,"1(3h)-isobenzofuranone, 3,3-dimethyl-6-nitro-",FENLPGARWVQRJL-UHFFFAOYSA-N,CC1(C)OC(=O)c2cc(ccc12)[N+]([O-])=O,-3.0516
B-3367,"phthalide, 3-ethyl-6-nitro-",OTOYVMKWIRQFSC-UHFFFAOYSA-N,CCC1OC(=O)c2cc(ccc12)[N+]([O-])=O,-2.55
B-3368,"butanal, 3-hydroxy-2-methyl-",ZURZPPULRFXVLF-UHFFFAOYSA-N,CC(O)C(C)C=O,-0.4906
B-3369,"8-quinazolinol, 4-methyl-",RSHKEEMIDCYLTC-UHFFFAOYSA-N,Cc1ncnc2c(O)cccc12,-2.6025
B-3370,"7(8h)-pteridinone, 6,8-dimethyl-",QLMHRZQMPAMXNG-UHFFFAOYSA-N,CN1C(=O)C(=Nc2cncnc12)C,-1.489
B-3372,"2,6-piperidinedicarboxamide",LOVQGUOGVLKMQT-UHFFFAOYSA-N,NC(=O)C1CCCC(N1)C(N)=O,0.2893
B-3373,"1,2-cyclohexanedione, 4-tert-pentyl-, dioxime",LKKSDAFFSSAZMV-UHFFFAOYSA-N,CCC(C)(C)C1CCC(=NO)C(C1)=NO,-3.9652
B-3374,"8-quinazolinol, 4-propyl-",KUCALNGKSZWXGU-UHFFFAOYSA-N,CCCc1ncnc2c(O)cccc12,-2.9206
B-3375,"1-naphthalenepropanoic acid, .beta.-amino-, ()",BIOQBKBTOAMMDG-GFCCVEGCSA-N,[NH3+][C@H](CC([O-])=O)c1cccc2ccccc12,-1.5902
B-3376,"3-pyridinecarboxylic acid, heptyl ester",MBYWGKLWYUEAKO-UHFFFAOYSA-N,CCCCCCCOC(=O)c1cccnc1,-2.7429
B-3377,quizalofop-p-ethyl,OSUHJPCHFDQAIT-GFCCVEGCSA-N,CCOC(=O)[C@@H](C)Oc1ccc(Oc2cnc3cc(Cl)ccc3n2)cc1,-5.9694
B-3378,halosulfuron-methyl,FMGZEUWROYGLAY-UHFFFAOYSA-N,COC(=O)c1c(Cl)nn(C)c1[S](=O)(=O)NC(=O)Nc2nc(OC)cc(OC)n2,-4.4642
B-3379,"quinoline, 5-acetamido-8-ethoxy-",UHIFHPBBOPIWEO-UHFFFAOYSA-N,CCOc1ccc(NC(C)=O)c2cccnc12,-1.5171
B-3380,"phosphoric acid, dibutyl 4-ethoxybutyl ester",XGWQSRFFKSAKGU-UHFFFAOYSA-N,CCCCO[P](=O)(OCCCC)OCCCCOCC,-2.6468
B-3381,acrinathrin,YLFSVIMMRPNPFK-WEQBUNFVSA-N,CC1(C)[C@@H](\C=C/C(=O)OC(C(F)(F)F)C(F)(F)F)[C@H]1C(=O)O[C@H](C#N)c2cccc(Oc3ccccc3)c2,-7.4325
B-3382,tribenuron-methyl,VLCQZHSMCYCDJL-UHFFFAOYSA-N,COC(=O)c1ccccc1[S](=O)(=O)NC(=O)N(C)c2nc(C)nc(OC)n2,-3.8981
B-3383,"butanoic acid, 2,2,4-trichloro-",UGTZSSVWKVRIAN-UHFFFAOYSA-N,OC(=O)C(Cl)(Cl)CCCl,-0.5831
B-3385,"phthalic acid, 4-nitro-, 2-methyl ester",DBRYTMUUOGDANT-UHFFFAOYSA-M,COC(=O)c1cc(ccc1C([O-])=O)[N+]([O-])=O,-1.721
B-3386,"undecanoic acid, 11-[(6-aminohexyl)amino]-",UHGYYQUSAMHAAH-UHFFFAOYSA-N,NCCCCCCNCCCCCCCCCCC(O)=O,-2.3017
B-3387,pefurazoate,WBTYBAGIHOISOQ-UHFFFAOYSA-N,CCC(N(Cc1occc1)C(=O)n2ccnc2)C(=O)OCCCC=C,-2.8919
B-3389,"pteridine, 2-methoxy-",NIKKSNUDXYPTRO-UHFFFAOYSA-N,COc1ncc2nccnc2n1,-1.113
B-3390,"2(1h)-pteridinone, 1-methyl-",LTDGAKSGAQHSFE-UHFFFAOYSA-N,CN1C(=O)N=Cc2nccnc12,-1.3713
B-3391,"hexanamide, n-(aminocarbonyl)-2-ethylidene-",AUJBYHKZNPPODV-DAXSKMNVSA-N,CCCC\C(=C\C)C(=O)NC(N)=O,-2.7883
B-3392,"butane, 2-chloro-3-methoxy-",RBFOFWDEFDASDA-UHFFFAOYSA-N,COC(C)C(C)Cl,-1.9986
B-3393,"phthalide, 4-bromo-6,7-dimethoxy-",OVTBMKVBBHTERH-UHFFFAOYSA-N,COc1cc(Br)c2COC(=O)c2c1OC,-3.9311
B-3394,"4-pteridinol, 6,7-diethyl-",WIUUIGUJULBTKD-UHFFFAOYSA-N,CCc1nc2ncnc(O)c2nc1CC,-1.9122
B-3395,fenchlorazole-ethyl,GMBRUAIJEFRHFQ-UHFFFAOYSA-N,CCOC(=O)c1nn(c2ccc(Cl)cc2Cl)c(n1)C(Cl)(Cl)Cl,-5.6516
B-3396,flumioxazin,FOUWCSDKDDHKQP-UHFFFAOYSA-N,Fc1cc2OCC(=O)N(CC#C)c2cc1N3C(=O)C4=C(CCCC4)C3=O,-5.2966
B-3397,"hexanedioic acid, 2,2-diphenyl-",NUDXUJGIZOXHOV-UHFFFAOYSA-N,OC(=O)CCCC(C(O)=O)(c1ccccc1)c2ccccc2,-3.1737
B-3398,Imazapic,PVSGXWMWNRGTKE-UHFFFAOYSA-N,CC(C)C1(C)N=C(NC1=O)c2ncc(C)cc2C(O)=O,-2.0911
B-3399,"2-benzofurancarboxylic acid, 3-methoxy-",MZOCFIBSONGMJF-UHFFFAOYSA-N,COc1c(oc2ccccc12)C(O)=O,-2.8857
B-3400,akh-7088,GAIFAPDHLCPUMF-IWIPYMOSSA-N,COC/C(=N/OCC(=O)OC)c1cc(Oc2ccc(cc2Cl)C(F)(F)F)ccc1[N+]([O-])=O,-5.6783
B-3401,silafluofen,HPYNBECUCCGGPA-UHFFFAOYSA-N,CCOc1ccc(cc1)[Si](C)(C)CCCc2ccc(F)c(Oc3ccccc3)c2,-8.6113
B-3402,clodinafop-propargyl,JBDHZKLJNAIJNC-LLVKDONJSA-N,C[C@@H](Oc1ccc(Oc2ncc(Cl)cc2F)cc1)C(=O)OCC#C,-4.9417
B-3403,pyrimidifen,ITKAIUGKVKDENI-UHFFFAOYSA-N,CCOCCc1ccc(OCCNc2ncnc(CC)c2Cl)c(C)c1C,-5.2409
B-3404,"valeric acid, 4-(benzamido)-",ZGBHFYITZDYZPR-UHFFFAOYSA-N,CC(CCC(O)=O)NC(=O)c1ccccc1,-1.6917
B-3405,2-bromo-4-methyl-5-nitro-1h-imidazole,GOKBPGXXQSCLLS-UHFFFAOYSA-N,Cc1nc(Br)[nH]c1[N+]([O-])=O,-1.7914