ID,Name,InChIKey,SMILES,Solubility
A-5788,zinc bis(12-hydroxyoctadecanoate),FRZSCIVUSFMNBX-UHFFFAOYSA-L,[Zn++].CCCCCCC(O)CCCCCCCCCCC([O-])=O.CCCCCCC(O)CCCCCCCCCCC([O-])=O,-5.4548481286
A-5790,"sodium; benzene-1,4-diamine; methanolate; methyl 2,3,4,5-tetrachloro-6-cyanobenzoate",CEQVQDVYGIXVPG-UHFFFAOYSA-N,[Na+].C[O-].COC(=O)c1c(Cl)c(Cl)c(Cl)c(Cl)c1C#N.Nc2ccc(N)cc2,-6.3058678101
A-5792,"1-amino-4-(4-amino-9,10-dioxo-9,10-dihydroanthracen-1-yl)-9,10-dihydroanthracene-9,10-dione",KNMQFBWXSICVQC-UHFFFAOYSA-N,Nc1ccc(c2ccc(N)c3C(=O)c4ccccc4C(=O)c23)c5C(=O)c6ccccc6C(=O)c15,-6.2937105628
A-5801,2-ethylhexyl (2-methylbutan-2-yl)oxy carbonate,HTCRKQHJUYBQTK-UHFFFAOYSA-N,CCCCC(CC)COC(=O)OOC(C)(C)CC,-6.0882386806
A-5803,"3-ethoxy-1,1,1,2,3,4,4,5,5,6,6,6-dodecafluoro-2-(trifluoromethyl)hexane",HHBBIOLEJRWIGU-UHFFFAOYSA-N,CCOC(F)(C(F)(F)C(F)(F)C(F)(F)F)C(F)(C(F)(F)F)C(F)(F)F,-7.2887340171
A-5808,strontium bis{5-chloro-2-[(2-hydroxy-1-naphthyl)diazenyl]-4-methylbenzenesulfonate},MRCCXHYDYMQBJW-MAKDUZDQSA-L,[Sr++].Cc1cc(N\N=C\2C(=O)C=Cc3ccccc23)c(cc1Cl)[S]([O-])(=O)=O.Cc4cc(N\N=C\5C(=O)C=Cc6ccccc56)c(cc4Cl)[S]([O-])(=O)=O,-7.6228592843
A-5811,"octadecyl 3-(3,5-di-tert-butyl-4-hydroxyphenyl)propanoate",SSDSCDGVMJFTEQ-UHFFFAOYSA-N,CCCCCCCCCCCCCCCCCCOC(=O)CCc1cc(c(O)c(c1)C(C)(C)C)C(C)(C)C,-8.2701498682
A-5812,"2-[(E)-2-(2,5-dichloro-4-{2,5-dichloro-4-[(E)-2-{1-[(2,4-dimethylphenyl)carbamoyl]-2-oxopropyl}diazen-1-yl]phenyl}phenyl)diazen-1-yl]-N-(2,4-dimethylphenyl)-3-oxobutanamide",GPWXTTPSHZOIKO-UHFFFAOYSA-N,CC(=O)C(N=Nc1cc(Cl)c(cc1Cl)c2cc(Cl)c(cc2Cl)N=NC(C(C)=O)C(=O)Nc3ccc(C)cc3C)C(=O)Nc4ccc(C)cc4C,-8.4626870474
A-5813,2-[(E)-2-(2-chloro-4-{3-chloro-4-[(E)-2-{1-[(2-methoxyphenyl)carbamoyl]-2-oxopropyl}diazen-1-yl]phenyl}phenyl)diazen-1-yl]-N-(2-methoxyphenyl)-3-oxobutanamide,VTGOEJALMFECDQ-UHFFFAOYSA-N,COc1ccccc1NC(=O)C(N=Nc2ccc(cc2Cl)c3ccc(N=NC(C(C)=O)C(=O)Nc4ccccc4OC)c(Cl)c3)C(C)=O,-8.4235961938
A-5814,"2-[(4-{(4-anilinophenyl)[4-(phenylimino)cyclohexa-2,5-dien-1-ylidene]methyl}phenyl)amino]benzenesulfonic acid",DVPLSZDCYOJSOG-UHFFFAOYSA-N,O[S](=O)(=O)c1ccccc1N=C2C=CC(C=C2)=C(c3ccc(Nc4ccccc4)cc3)c5ccc(Nc6ccccc6)cc5,-8.3771050883
A-5817,"4,11-diamino-2-[3-(2-methoxyethoxy)propyl]-1H-naphtho[2,3-f]isoindole-1,3,5,10(2H)-tetrone",SOYBSGQXDYYMDH-UHFFFAOYSA-N,COCCOCCCN1C(=O)c2c(N)c3C(=O)c4ccccc4C(=O)c3c(N)c2C1=O,-8.2650486602
A-5818,"1,4-diamino-2,3-diphenoxy-9,10-dihydroanthracene-9,10-dione",NZTGGRGGJFCKGG-UHFFFAOYSA-N,Nc1c(Oc2ccccc2)c(Oc3ccccc3)c(N)c4C(=O)c5ccccc5C(=O)c14,-8.2716565948
A-5819,"diethyl 4,4'-[(3,3'-dichlorobiphenyl-4,4'-diyl)didiazene-2,1-diyl]bis(5-oxo-1-phenyl-4,5-dihydro-1H-pyrazole-3-carboxylate)",PLYDMIIYRWUYBP-UHFFFAOYSA-N,CCOC(=O)C1=NN(C(=O)C1N=Nc2ccc(cc2Cl)c3ccc(N=NC4C(=O)N(N=C4C(=O)OCC)c5ccccc5)c(Cl)c3)c6ccccc6,-8.5265601286
A-5820,hydrogen selenide,BUGBHKTXTAQXES-UHFFFAOYSA-N,[Se],-6.5751878449
A-5823,"2-[(E)-2-(2-chloro-4-{3-chloro-4-[(E)-2-{1-[(2,4-dimethylphenyl)carbamoyl]-2-oxopropyl}diazen-1-yl]phenyl}phenyl)diazen-1-yl]-N-(2,4-dimethylphenyl)-3-oxobutanamide; N-(4-chloro-2,5-dimethoxyphenyl)-2-[(E)-2-(2-chloro-4-{3-chloro-4-[(E)-2-{1-[(2,4-dimethylphenyl)carbamoyl]-2-oxopropyl}diazen-1-yl]phenyl}phenyl)diazen-1-yl]-3-oxobutanamide; N-(4-chloro-2,5-dimethoxyphenyl)-2-[(E)-2-(2-chloro-4-{3-chloro-4-[(E)-2-{1-[(4-chloro-2,5-dimethoxyphenyl)carbamoyl]-2-oxopropyl}diazen-1-yl]phenyl}phenyl)diazen-1-yl]-3-oxobutanamide",GRQXGJNOPVEUOS-UHFFFAOYSA-N,COc1cc(NC(=O)C(N=Nc2ccc(cc2Cl)c3ccc(N=NC(C(C)=O)C(=O)Nc4ccc(C)cc4C)c(Cl)c3)C(C)=O)c(OC)cc1Cl.COc5cc(NC(=O)C(N=Nc6ccc(cc6Cl)c7ccc(N=NC(C(C)=O)C(=O)Nc8cc(OC)c(Cl)cc8OC)c(Cl)c7)C(C)=O)c(OC)cc5Cl.CC(=O)C(N=Nc9ccc(cc9Cl)c%10ccc(N=NC(C(C)=O)C(=O)Nc%11ccc(C)cc%11C)c(Cl)c%10)C(=O)Nc%12ccc(C)cc%12C,-9.052340862
A-5824,8-methylnonyl methacrylate,COCLLEMEIJQBAG-UHFFFAOYSA-N,CC(C)CCCCCCCOC(=O)C(C)=C,-6.0559466089
A-5829,2-[(E)-2-(4-chloro-2-nitrophenyl)diazen-1-yl]-N-(2-methoxyphenyl)-3-oxobutanamide,QPHCXDDGQQLPIM-UHFFFAOYSA-N,COc1ccccc1NC(=O)C(N=Nc2ccc(Cl)cc2[N+]([O-])=O)C(C)=O,-7.3063783536
A-5831,telluroxocadmium,RPPBZEBXAAZZJH-UHFFFAOYSA-N,[Cd]=[Te],-7.1014793549
A-5832,barium(2+) ion bis(5-chloro-4-ethyl-2-[(E)-2-(2-hydroxynaphthalen-1-yl)diazen-1-yl]benzene-1-sulfonate),UHQRNRDFXWNMTG-SJZRJVDOSA-L,[Ba++].CCc1cc(N\N=C/2C(=O)C=Cc3ccccc23)c(cc1Cl)[S]([O-])(=O)=O.CCc4cc(N\N=C/5C(=O)C=Cc6ccccc56)c(cc4Cl)[S]([O-])(=O)=O,-5.6928601803
A-5835,"4-[(E)-2-[2-chloro-5-(trifluoromethyl)phenyl]diazen-1-yl]-N-(2,5-dichloro-4-{4-[(E)-2-[2-chloro-5-(trifluoromethyl)phenyl]diazen-1-yl]-3-hydroxynaphthalene-2-amido}phenyl)-3-hydroxynaphthalene-2-carboxamide",FXXSGZBPAJRJHH-ZOZQPSRMSA-N,FC(F)(F)c1ccc(Cl)c(N\N=C2/C(=O)C(=Cc3ccccc23)C(=O)Nc4cc(Cl)c(NC(=O)C5=Cc6ccccc6C(=N/Nc7cc(ccc7Cl)C(F)(F)F)\C5=O)cc4Cl)c1,-7.6922433716
A-5836,"dibenzylbenzene, ar-methyl derivative",PKQYSCBUFZOAPE-UHFFFAOYSA-N,Cc1cccc(Cc2ccccc2)c1Cc3ccccc3,-7.179920249
A-5838,Cobaltous carbonate,ZOTKGJBKKKVBJZ-UHFFFAOYSA-L,[Co++].[O-]C([O-])=O,-4.8375365922
A-5839,"2-[(E)-2-{2-oxo-1-[(2-oxo-2,3-dihydro-1H-1,3-benzodiazol-5-yl)carbamoyl]propyl}diazen-1-yl]benzoic acid",YMFWVWDPPIWORA-UHFFFAOYSA-N,CC(=O)C(N=Nc1ccccc1C(O)=O)C(=O)Nc2ccc3NC(=O)Nc3c2,-7.3309014707
A-5841,"2,2'-[ethylenebis(oxyphenyl-2,1-eneazo)]bis[N-(2,3-dihydro-2-oxo-1H-benzimidazol-5-yl)-3-oxobutyramide",PUNNQKXGKNOLTB-UHFFFAOYSA-N,CC(=O)C(N=Nc1ccccc1OCCOc2ccccc2N=NC(C(C)=O)C(=O)Nc3ccc4NC(=O)Nc4c3)C(=O)Nc5ccc6NC(=O)Nc6c5,-7.6344855683
A-5842,"4-[(E)-2-(2,5-dichlorophenyl)diazen-1-yl]-3-hydroxy-N-(2-oxo-2,3-dihydro-1H-1,3-benzodiazol-5-yl)naphthalene-2-carboxamide",RDSIMJMOMMJYEH-YQYKVWLJSA-N,Clc1ccc(Cl)c(N\N=C2/C(=O)C(=Cc3ccccc23)C(=O)Nc4ccc5NC(=O)Nc5c4)c1,-7.4618003218
A-5843,calcium bis(4-[(E)-2-{1-[(2-chlorophenyl)carbamoyl]-2-oxopropyl}diazen-1-yl]-3-nitrobenzene-1-sulfonate),HNZWXYKISSJTJE-UHFFFAOYSA-M,[Ca++].CC(=O)C(N=Nc1ccc(cc1[N+]([O-])=O)[S]([O-])(=O)=O)C(=O)Nc2ccccc2Cl,-5.4514607628
A-5844,iron,XEEYBQQBJWHFJM-UHFFFAOYSA-N,[Fe],-5.5190975907
A-5847,cyclododecane,DDTBPAQBQHZRDW-UHFFFAOYSA-N,C1CCCCCCCCCCC1,-7.0220260604
A-5849,hexyl 2-[4-(diethylamino)-2-hydroxybenzoyl]benzoate,FDATWRLUYRHCJE-UHFFFAOYSA-N,CCCCCCOC(=O)c1ccccc1C(=O)c2ccc(cc2O)N(CC)CC,-7.3952335385
A-5851,borane,IOCVPZINIZVUIL-UHFFFAOYSA-N,[B],-4.8435743389
A-5852,Cobaltous 2-ethylhexanoate,QAEKNCDIHIGLFI-UHFFFAOYSA-L,[Co++].CCCCC(CC)C([O-])=O.CCCCC(CC)C([O-])=O,-5.347977516
A-5853,"2,3-dibutyl 1,4,5,6,7,7-hexachlorobicyclo[2.2.1]hept-5-ene-2,3-dicarboxylate",UJAHPBDUQZFDLA-UHFFFAOYSA-N,CCCCOC(=O)C1C(C(=O)OCCCC)C2(Cl)C(=C(Cl)C1(Cl)C2(Cl)Cl)Cl,-7.5095589026
A-5854,Solvent orange 60,XFYQEBBUVNLYBR-UHFFFAOYSA-N,O=C1N2c3cccc4cccc(N=C2c5ccccc15)c34,-7.255740326
A-5863,"2,9-dichloro-5,7,12,14-tetrahydro-5,12-diazapentacene-7,14-dione",XPZQBGDNVOHQIS-UHFFFAOYSA-N,Clc1ccc2Nc3cc4C(=O)c5cc(Cl)ccc5Nc4cc3C(=O)c2c1,-7.4198053963
A-5864,"3-oxo-N-(2-oxo-2,3-dihydro-1H-1,3-benzodiazol-5-yl)-2-[(E)-2-[2-(trifluoromethyl)phenyl]diazen-1-yl]butanamide",VBNVBMNKUIJLPP-UHFFFAOYSA-N,CC(=O)C(N=Nc1ccccc1C(F)(F)F)C(=O)Nc2ccc3NC(=O)Nc3c2,-7.455526833
A-5865,"bis(2-chloroethyl) 3,3'-[(2,5-dimethyl-p-phenylene)bis[iminocarbonyl(2-hydroxy-1,3-naphthylene)azo]]di-p-toluate",XTBJBXBNPQDSCC-JRDITHOPSA-N,Cc1ccc(cc1N\N=C2\C(=O)C(=Cc3ccccc23)C(=O)Nc4cc(C)c(NC(=O)C5=Cc6ccccc6C(=N/Nc7c(C)cccc7C(=O)OCCCl)/C5=O)cc4C)C(=O)OCCCl,-7.8142410285
A-5866,"2-[(E)-2-(4-chloro-2-nitrophenyl)diazen-1-yl]-3-oxo-N-(2-oxo-2,3-dihydro-1H-1,3-benzodiazol-5-yl)butanamide",DLQMNSDNQWLFSS-UHFFFAOYSA-N,CC(=O)C(N=Nc1ccc(Cl)cc1[N+]([O-])=O)C(=O)Nc2ccc3NC(=O)Nc3c2,-7.4737798767
A-5868,10-[(2-methylprop-2-enoyl)oxy]decyl 2-methylprop-2-enoate,LRZPQLZONWIQOJ-UHFFFAOYSA-N,CC(=C)C(=O)OCCCCCCCCCCOC(=O)C(C)=C,-6.3502060506
A-5872,"4,11-dichloro-5,7,12,14-tetrahydro-5,12-diazapentacene-7,14-dione",BFEJTCHFLJECJN-UHFFFAOYSA-N,Clc1cccc2C(=O)c3cc4Nc5c(Cl)cccc5C(=O)c4cc3Nc12,-6.4573217576
A-5875,2-[(E)-2-(4-methyl-2-nitrophenyl)diazen-1-yl]-3-oxo-N-phenylbutanamide,MFYSUUPKMDJYPF-UHFFFAOYSA-N,CC(=O)C(N=Nc1ccc(C)cc1[N+]([O-])=O)C(=O)Nc2ccccc2,-7.4179683662
A-5883,decanoyl decaneperoxoate,XJOBOFWTZOKMOH-UHFFFAOYSA-N,CCCCCCCCCC(=O)OOC(=O)CCCCCCCCC,-6.4497523604
A-5884,4-[(4-chloro-2-nitrophenyl)diazenyl]-3-hydroxy-N-(2-methylphenyl)-2-naphthamide,FDLZXQOOTWLAOB-SLMZUGIISA-N,Cc1ccccc1NC(=O)C2=Cc3ccccc3C(=N/Nc4ccc(Cl)cc4[N+]([O-])=O)/C2=O,-7.5632144901
A-5885,"[1,3-dihydro-5,6-bis[[(2-hydroxy-1-naphthyl)methylene]amino]-2H-benzimidazol-2-onato(2-)-N5,N6,O5,O6]nickel",IUJCUHZTPCIQQT-UHFFFAOYSA-L,[Ni++].[O-]c1ccc2ccccc2c1C=Nc3cc4NC(=O)Nc4cc3N=Cc5c([O-])ccc6ccccc56,-7.6266942296
A-5886,oxygen(-2) anion; platinum(+4) cation,WNVYCMIJBVIKSY-UHFFFAOYSA-N,[O--].[O--].[Pt+4],-7.2627495503
A-5887,neodymium,QEFYFXOXNSNQGX-UHFFFAOYSA-N,[Nd],-7.0799044677
A-5888,oxocobalt,IVMYJDGYRUAWML-UHFFFAOYSA-N,O=[Co],-5.798391069
A-5894,"calcium bis(3-(3-{2-[(1Z)-3-[(4-methoxyphenyl)carbamoyl]-2-oxo-1,2-dihydronaphthalen-1-ylidene]hydrazin-1-yl}-4-methylbenzamido)benzene-1-sulfonate)",MVOVSLDNNBTJIE-CHTASWDYSA-L,[Ca++].COc1ccc(NC(=O)C2=Cc3ccccc3/C(=N/Nc4cc(ccc4C)C(=O)Nc5cccc(c5)[S]([O-])(=O)=O)C2=O)cc1.COc6ccc(NC(=O)C7=Cc8ccccc8/C(=N/Nc9cc(ccc9C)C(=O)Nc%10cccc(c%10)[S]([O-])(=O)=O)C7=O)cc6,-7.0509311827
A-5895,4-[(E)-2-(4-carbamoylphenyl)diazen-1-yl]-N-(2-ethoxyphenyl)-3-hydroxynaphthalene-2-carboxamide,PYUYQYBDJFMFTH-JJKYIXSRSA-N,CCOc1ccccc1NC(=O)C2=Cc3ccccc3C(=N/Nc4ccc(cc4)C(N)=O)\C2=O,-7.5819735484
A-5896,3-hydroxy-4-[(2-methyl-5-nitrophenyl)diazenyl]-N-phenyl-2-naphthamide,HVBDWKMAUMVFIY-QYQHSDTDSA-N,Cc1ccc(cc1N\N=C2/C(=O)C(=Cc3ccccc23)C(=O)Nc4ccccc4)[N+]([O-])=O,-7.5579677799
A-5898,"2-[(E)-2-(4-nitrophenyl)diazen-1-yl]-3-oxo-N-(2-oxo-2,3-dihydro-1H-1,3-benzodiazol-5-yl)butanamide",HXXOOSWHCMYQQV-UHFFFAOYSA-N,CC(=O)C(N=Nc1ccc(cc1)[N+]([O-])=O)C(=O)Nc2ccc3NC(=O)Nc3c2,-7.5255403409
A-5899,"N-(3-chloro-4-{4-[(E)-2-(2,5-dichlorophenyl)diazen-1-yl]-3-hydroxynaphthalene-2-amido}phenyl)-4-[(E)-2-(2,5-dichlorophenyl)diazen-1-yl]-3-hydroxynaphthalene-2-carboxamide",QCLKBJKESKISHE-ZRFMCYSTSA-N,Clc1ccc(Cl)c(N\N=C2\C(=O)C(=Cc3ccccc23)C(=O)Nc4ccc(NC(=O)C5=Cc6ccccc6C(=N/Nc7cc(Cl)ccc7Cl)\C5=O)c(Cl)c4)c1,-7.8692982631
A-5901,12-[(2-methylprop-2-enoyl)oxy]dodecyl 2-methylprop-2-enoate,HYQASEVIBPSPMK-UHFFFAOYSA-N,CC(=C)C(=O)OCCCCCCCCCCCCOC(=O)C(C)=C,-7.484220298
A-5909,"N-(4-carbamoylphenyl)-4-[(E)-2-{2-oxo-1-[(2-oxo-2,3-dihydro-1H-1,3-benzodiazol-5-yl)carbamoyl]propyl}diazen-1-yl]benzamide",PXMLTVJEYHGPEH-UHFFFAOYSA-N,CC(=O)C(N=Nc1ccc(cc1)C(=O)Nc2ccc(cc2)C(N)=O)C(=O)Nc3ccc4NC(=O)Nc4c3,-6.6728088056
A-5918,"2,2'-[(3,3'-dichlorobiphenyl-4,4'-diyl)didiazene-2,1-diyl]bis[N-(4-ethoxyphenyl)-3-oxobutanamide]",LNBRYDZEIVHGHO-UHFFFAOYSA-N,CCOc1ccc(NC(=O)C(N=Nc2ccc(cc2Cl)c3ccc(N=NC(C(C)=O)C(=O)Nc4ccc(OCC)cc4)c(Cl)c3)C(C)=O)cc1,-7.8305826168
A-5919,1-({[(piperidine-1-carbothioyldisulfanyl)disulfanyl]disulfanyl}methanethioyl)piperidine,HPFHYRNETZEPIV-UHFFFAOYSA-N,S=C(SSSSSSC(=S)N1CCCCC1)N2CCCCC2,-7.6317322062
A-5920,"5,7,12,14-tetrahydro-5,12-diazapentacene-7,14-dione",NRCMAYZCPIVABH-UHFFFAOYSA-N,O=C1c2ccccc2Nc3cc4C(=O)c5ccccc5Nc4cc13,-7.4817736955
A-5921,4-chloro-N-(3-chloro-2-methylphenyl)-3-[(E)-2-{1-[(5-chloro-4-{2-[(E)-2-{2-chloro-5-[(3-chloro-2-methylphenyl)carbamoyl]phenyl}diazen-1-yl]-3-oxobutanamido}-2-methylphenyl)carbamoyl]-2-oxopropyl}diazen-1-yl]benzamide,PFTIMORLWNOYIQ-UHFFFAOYSA-N,CC(=O)C(N=Nc1cc(ccc1Cl)C(=O)Nc2cccc(Cl)c2C)C(=O)Nc3cc(Cl)c(NC(=O)C(N=Nc4cc(ccc4Cl)C(=O)Nc5cccc(Cl)c5C)C(C)=O)cc3C,-7.9717711074
A-5922,N-(5-chloro-2-methylphenyl)-3-hydroxy-4-[(E)-2-[2-methoxy-5-(phenylcarbamoyl)phenyl]diazen-1-yl]naphthalene-2-carboxamide,XBIDLTIKWLPFIC-GPFIVKHLSA-N,COc1ccc(cc1N\N=C2/C(=O)C(=Cc3ccccc23)C(=O)Nc4cc(Cl)ccc4C)C(=O)Nc5ccccc5,-7.7520707385
A-5923,"1,2-Benzenedicarboxylic acid, benzyl C7-9-branched and linear alkyl esters",WHHSHXMIKFVAEK-UHFFFAOYSA-N,CCCCCCCCOC(=O)c1ccccc1C(=O)OCc2ccccc2,-8.2876520693
A-5924,2-[(E)-2-(4-methoxy-2-nitrophenyl)diazen-1-yl]-N-(2-methoxyphenyl)-3-oxobutanamide,UFORAEIAYCSGCR-UHFFFAOYSA-N,COc1ccc(N=NC(C(C)=O)C(=O)Nc2ccccc2OC)c(c1)[N+]([O-])=O,-8.3082430527
A-5925,"3-hydroxy-4-[(E)-2-[2-methoxy-5-(phenylcarbamoyl)phenyl]diazen-1-yl]-N-(2-oxo-2,3-dihydro-1H-1,3-benzodiazol-5-yl)naphthalene-2-carboxamide",FUKXNOBSWGZIKZ-AWYAZMPSSA-N,COc1ccc(cc1N\N=C2/C(=O)C(=Cc3ccccc23)C(=O)Nc4ccc5NC(=O)Nc5c4)C(=O)Nc6ccccc6,-8.4790833317
A-5928,"N-[(1,1,3,3-tetramethylbutyl)phenyl]naphthalen-1-amine",SNWVRVDHQRBBFG-UHFFFAOYSA-N,CC(C)(C)CC(C)(C)N(c1ccccc1)c2cccc3ccccc23,-8.2900385416
A-5929,"4-[(E)-2-(2,5-dichlorophenyl)diazen-1-yl]-3-hydroxy-N-(2-methoxyphenyl)naphthalene-2-carboxamide",FRVRYQDYZFDWNR-QUPMIFSKSA-N,COc1ccccc1NC(=O)C2=Cc3ccccc3C(=N/Nc4cc(Cl)ccc4Cl)\C2=O,-8.4645677849
A-5930,"2-{[(2-{[3-(3,5-di-tert-butyl-4-hydroxyphenyl)propanoyl]oxy}ethyl)carbamoyl]formamido}ethyl 3-(3,5-di-tert-butyl-4-hydroxyphenyl)propanoate",OXWDLAHVJDUQJM-UHFFFAOYSA-N,CC(C)(C)c1cc(CCC(=O)OCCNC(=O)C(=O)NCCOC(=O)CCc2cc(c(O)c(c2)C(C)(C)C)C(C)(C)C)cc(c1O)C(C)(C)C,-8.6670954079
A-5932,isohexadecyl 12-[(1-oxooctadecyl)oxy]octadecanoate,OUZJJDFOKSDCHY-UHFFFAOYSA-N,CCCCCCCCCCCCCCCCCC(=O)OC(CCCCCC)CCCCCCCCCCC(=O)OCCCCCCCCCCCCCC(C)C,-8.7553724653
A-5933,"(2R)-2,5,7,8-tetramethyl-2-[(4R,8R)-4,8,12-trimethyltridecyl]-3,4-dihydro-2H-1-benzopyran-6-ol",GVJHHUAWPYXKBD-IEOSBIPESA-N,CC(C)CCC[C@@H](C)CCC[C@@H](C)CCC[C@]1(C)CCc2c(C)c(O)c(C)c(C)c2O1,-8.520248661
A-5934,"(2R)-2,5,7,8-tetramethyl-2-[(4R,8R)-4,8,12-trimethyltridecyl]-3,4-dihydro-2H-1-benzopyran-6-ol; (2R)-2,5,8-trimethyl-2-[(4R,8R)-4,8,12-trimethyltridecyl]-3,4-dihydro-2H-1-benzopyran-6-ol; (2R)-2,7,8-trimethyl-2-[(4R,8R)-4,8,12-trimethyltridecyl]-3,4-dihydro-2H-1-benzopyran-6-ol; (2R)-2,8-dimethyl-2-[(4R,8R)-4,8,12-trimethyltridecyl]-3,4-dihydro-2H-1-benzopyran-6-ol",QUEDXNHFTDJVIY-UHFFFAOYSA-N,CC(C)CCCC(C)CCCC(C)CCCC1(C)CCc2cc(O)c(C)c(C)c2O1,-8.5058697258
A-5937,2-(hydroxymethyl)-2-[(oleoyloxy)methyl]butyl octadec-9-enoate (non-preferred name),NKSZWBYBTXAALC-WRBBJXAJSA-N,CCCCCCCC\C=C/CCCCCCCC(=O)OCC(CC)(CO)COC(=O)CCCCCCC\C=C/CCCCCCCC,-8.7211960386
A-5939,oxopalladium,JQPTYAILLJKUCY-UHFFFAOYSA-N,[O--].[Pd++],-8.0625429623
A-5940,2-[(E)-2-(2-chloro-4-{3-chloro-4-[(E)-2-{1-[(2-methylphenyl)carbamoyl]-2-oxopropyl}diazen-1-yl]phenyl}phenyl)diazen-1-yl]-N-(2-methylphenyl)-3-oxobutanamide,LQZFGPJGXVFSTR-UHFFFAOYSA-N,CC(=O)C(N=Nc1ccc(cc1Cl)c2ccc(N=NC(C(C)=O)C(=O)Nc3ccccc3C)c(Cl)c2)C(=O)Nc4ccccc4C,-8.9148440789
A-5941,"4-[(E)-2-(1-butyl-5-cyano-2-hydroxy-4-methyl-6-oxo-1,6-dihydropyridin-3-yl)diazen-1-yl]-N-(2-ethylhexyl)benzene-1-sulfonamide",GRIJBPAOIJBRSI-UHFFFAOYSA-N,CCCCC(CC)CN[S](=O)(=O)c1ccc(cc1)N=NC2=C(O)N(CCCC)C(=O)C(=C2C)C#N,-8.7973134268
A-5950,stannanethione,AFNRRBXCCXDRPS-UHFFFAOYSA-N,S=[SnH2],-8.4059550501
A-5951,"4-[(E)-2-(2,3-dichlorophenyl)diazen-1-yl]-N-(5-{4-[(E)-2-(2,3-dichlorophenyl)diazen-1-yl]-3-hydroxynaphthalene-2-amido}naphthalen-1-yl)-3-hydroxynaphthalene-2-carboxamide",BUYSBTOYLGJGAQ-OOJZLWMKSA-N,Clc1cccc(N\N=C2/C(=O)C(=Cc3ccccc23)C(=O)Nc4cccc5c(NC(=O)C6=Cc7ccccc7C(=N/Nc8cccc(Cl)c8Cl)\C6=O)cccc45)c1Cl,-9.227651248
A-5953,dibismuth(3+) ion trisulfanediide,YNRGZHRFBQOYPP-UHFFFAOYSA-N,[S--].[S--].[S--].[Bi+3].[Bi+3],-9.0983152748
A-5954,2-{2-[2-chloro-4-(3-chloro-4-{2-[2-oxo-1-(phenylcarbamoyl)propyl]diazen-1-yl}phenyl)phenyl]diazen-1-yl}-3-oxo-N-phenylbutanamide,GNCOVOVCHIHPHP-UHFFFAOYSA-N,CC(=O)C(N=Nc1ccc(cc1Cl)c2ccc(N=NC(C(C)=O)C(=O)Nc3ccccc3)c(Cl)c2)C(=O)Nc4ccccc4,-9.1969385027
A-5958,"1,1,2,2,3,3,3-heptafluoro-N,N-bis(heptafluoropropyl)propan-1-amine",JAJLKEVKNDUJBG-UHFFFAOYSA-N,FC(F)(F)C(F)(F)C(F)(F)N(C(F)(F)C(F)(F)C(F)(F)F)C(F)(F)C(F)(F)C(F)(F)F,-9.1359660934
A-5959,"2-[(E)-2-(2-chloro-4-{3-chloro-4-[(E)-2-{1-[(2,4-dimethylphenyl)carbamoyl]-2-oxopropyl}diazen-1-yl]phenyl}phenyl)diazen-1-yl]-N-(2,4-dimethylphenyl)-3-oxobutanamide",IAFBRPFISOTXSO-UHFFFAOYSA-N,CC(=O)C(N=Nc1ccc(cc1Cl)c2ccc(N=NC(C(C)=O)C(=O)Nc3ccc(C)cc3C)c(Cl)c2)C(=O)Nc4ccc(C)cc4C,-9.2920103659
A-5961,"2-[(1-amino-4-hydroxy-9,10-dioxo-9,10-dihydroanthracen-2-yl)oxy]ethyl ethyl carbonate",GLVDLLVMSDGVDA-UHFFFAOYSA-N,CCOC(=O)OCCOc1cc(O)c2C(=O)c3ccccc3C(=O)c2c1N,-9.2195295624
A-5964,tetratrimethylsilyl silicate,VNRWTCZXQWOWIG-UHFFFAOYSA-N,C[Si](C)(C)O[Si](O[Si](C)(C)C)(O[Si](C)(C)C)O[Si](C)(C)C,-9.4071737246
A-5965,"1,3-dibromo-5-{2-[3,5-dibromo-4-(2,3-dibromopropoxy)phenyl]propan-2-yl}-2-(2,3-dibromopropoxy)benzene",LXIZRZRTWSDLKK-UHFFFAOYSA-N,CC(C)(c1cc(Br)c(OCC(Br)CBr)c(Br)c1)c2cc(Br)c(OCC(Br)CBr)c(Br)c2,-9.8164351053
A-5970,iridium(3+),GKOZUEZYRPOHIO-UHFFFAOYSA-N,[Ir],-9.9827617991
A-5972,"1,4-bis(16-methylheptadecyl) 2-hydroxybutanedioate",HGKOWIQVWAQWDS-UHFFFAOYSA-N,CC(C)CCCCCCCCCCCCCCCOC(=O)CC(O)C(=O)OCCCCCCCCCCCCCCCC(C)C,-7.9926275988
A-5974,Cobaltous stearate,AMFIJXSMYBKJQV-UHFFFAOYSA-L,[Co++].CCCCCCCCCCCCCCCCCC([O-])=O.CCCCCCCCCCCCCCCCCC([O-])=O,-5.2733987051
A-5977,decyl 2-ethylhexanoate,NPTQTLMUAAVGNU-UHFFFAOYSA-N,CCCCCCCCCCOC(=O)C(CC)CCCC,-8.1939864578
A-5978,"3,5,5-trimethylhexyl 3,5,5-trimethylhexanoate",UIVPNOBLHXUKDX-UHFFFAOYSA-N,CC(CCOC(=O)CC(C)CC(C)(C)C)CC(C)(C)C,-8.2779665867
A-5979,tetradecyl octadecanoate,MHXBHWLGRWOABW-UHFFFAOYSA-N,CCCCCCCCCCCCCCCCCC(=O)OCCCCCCCCCCCCCC,-8.9830504541
A-5980,"2,5,7,10,11,14-hexaoxa-1,6-distibabicyclo[4.4.4]tetradecane",JEPVJCOLPSALKN-UHFFFAOYSA-N,C1CO[Sb]2OCCO[Sb](O1)OCCO2,-9.0249738719
A-5982,"1-phenyldecane-1,3-dione",IFQULAPKPYIHBS-UHFFFAOYSA-N,CCCCCCCC(=O)CC(=O)c1ccccc1,-5.8836966949
A-5987,oxo[(oxochromio)oxy]chromium; oxo[(oxoferrio)oxy]iron; oxo[(oxomanganio)oxy]manganese,OIIOABHODDNVGM-UHFFFAOYSA-N,O=[Cr]O[Cr]=O.O=[Mn]O[Mn]=O.O=[Fe]O[Fe]=O,-8.9727109156
A-5988,silicon,XMIJDTGORVPYLW-UHFFFAOYSA-N,[Si],-5.6631600565
A-5991,"6-chloro-2-(6-chloro-4-methyl-3-oxo-2,3-dihydro-1-benzothiophen-2-ylidene)-4-methyl-2,3-dihydro-1-benzothiophen-3-one",NDDLLTAIKYHPOD-ZCXUNETKSA-N,Cc1cc(Cl)cc2SC(/C(=O)c12)=C/3Sc4cc(Cl)cc(C)c4C3=O,-7.9319837821
A-5992,1-[(E)-2-(4-methoxy-2-nitrophenyl)diazen-1-yl]naphthalen-2-ol,GUQQNFZJJXURDL-ZPHPHTNESA-N,COc1ccc(N\N=C2/C(=O)C=Cc3ccccc23)c(c1)[N+]([O-])=O,-7.9911025111
A-5993,2-{[2-hydroxy-5-methyl-3-(1-methylcyclohexyl)phenyl]methyl}-4-methyl-6-(1-methylcyclohexyl)phenol,PHXLONCQBNATSL-UHFFFAOYSA-N,Cc1cc(Cc2cc(C)cc(c2O)C3(C)CCCCC3)c(O)c(c1)C4(C)CCCCC4,-8.1467862166
A-5994,disulfanylidenemolybdenum,QYSJWHFJGCFRDE-UHFFFAOYSA-N,S.[Mo],-5.8129901866
A-5995,"4,10-dibromonaphtho[7,8,1,2,3-nopqr]tetraphene-6,12-dione",HTENFZMEHKCNMD-UHFFFAOYSA-N,Brc1cc2C(=O)c3cccc4c(Br)cc5C(=O)c6cccc1c6c2c5c34,-7.6331990421
A-5996,"5-[(E)-2-(6-methyl-2-oxo-2,3-dihydro-1H-1,3-benzodiazol-5-yl)diazen-1-yl]-1,3-diazinane-2,4,6-trione",LEKRPRXZDBMCCI-UHFFFAOYSA-N,CC1=CC2=NC(=O)N=C2C=C1NNC3C(=O)NC(=O)NC3=O,-6.4891402338
A-5997,"4-methyl-2,6-bis[(4-methylphenyl)amino]-5-{2-[2-(trifluoromethyl)phenyl]diazen-1-yl}pyridine-3-carbonitrile",FOICTPKVVFHDJU-UHFFFAOYSA-N,Cc1ccc(Nc2nc(Nc3ccc(C)cc3)c(C#N)c(C)c2N=Nc4ccccc4C(F)(F)F)cc1,-7.7171571443
A-5998,C.i. Pigment Red 179,PJQYNUFEEZFYIS-UHFFFAOYSA-N,CN1C(=O)c2ccc3c4ccc5C(=O)N(C)C(=O)c6ccc(c7ccc(C1=O)c2c37)c4c56,-7.7185099927
A-5999,"2-(3-Methoxypropyl)-9(or 10)-methylbenzimidazo(2,1-b)benzo(lmn)(3,8)phenanthroline-1,3,6(2H)-trione",PMZXKSSDXXNNIO-UHFFFAOYSA-N,COCCCN1C(=O)c2ccc3C(=O)n4c5ccc(C)cc5nc4c6ccc(C1=O)c2c36,-6.7715099068
A-6001,"N,N'-phenylene-1,4-bis[4-[(2,5-dichlorophenyl)azo]-3-hydroxynaphthalene-2-carboxamide]",NAOAIXJLSONHSA-UHFFFAOYSA-N,Oc1cc2ccccc2cc1C(=O)N=NNc3cc(Cl)c(cc3Cl)c4ccc(cc4)c5cc(Cl)c(NN=NC(=O)c6cc7ccccc7cc6O)cc5Cl,-8.0871707055
A-6002,"Fatty acids, C5-9, tetraesters with pentaerythritol",PIZFEKJNYKNABG-UHFFFAOYSA-N,CCCCCCCOCC(COCCCCCCC)(COCCCCCCC)COCCCCCCC,-7.94522478
A-6003,zirconium dioxide,MCMNRKCIXSYSNV-UHFFFAOYSA-N,O=[Zr]=O,-6.350325564
A-6004,"N-{5-[bis(prop-2-en-1-yl)amino]-2-[(E)-2-(2-bromo-4,6-dinitrophenyl)diazen-1-yl]-4-methoxyphenyl}acetamide",WXDXQSMFRITTEJ-UHFFFAOYSA-N,COc1cc(N=Nc2c(Br)cc(cc2[N+]([O-])=O)[N+]([O-])=O)c(NC(C)=O)cc1N(CC=C)CC=C,-7.0093328393
A-6005,"2,2'-biindole-3,3'(1H,1'H)-dione",COHYTHOBJLSHDF-YPKPFQOOSA-N,O=C1\C(Nc2ccccc12)=C/3Nc4ccccc4C3=O,-6.7197753001
A-6006,propan-2-yl tetradecanoate,AXISYYRBXTVTFY-UHFFFAOYSA-N,CCCCCCCCCCCCCC(=O)OC(C)C,-6.733128222