ID,Name,InChIKey,SMILES,Solubility
B-3406,"acetamide, 2-(benzoyloxy)-n-methyl-",ZWAHHEQQTJUTPW-UHFFFAOYSA-N,CNC(=O)COC(=O)c1ccccc1,-1.7178
B-3407,"acetamide, 2-(benzoyloxy)-n-propyl-",OLCZSUFMDPGDIL-UHFFFAOYSA-N,CCCNC(=O)COC(=O)c1ccccc1,-2.5387
B-3408,"acetamide, 2-(benzoyloxy)-n-(1,1-dimethylethyl)-",NZNPHIKNHGRVLZ-UHFFFAOYSA-N,CC(C)(C)NC(=O)COC(=O)c1ccccc1,-2.8665
B-3409,"acetamide, 2-[[(benzoyloxy)acetyl]amino]-",XYGUXAGVJDBSBP-UHFFFAOYSA-N,NC(=O)CNC(=O)COC(=O)c1ccccc1,-1.4983
B-3410,"acetamide, 2-(benzoyloxy)-n,n-dimethyl-",WKIMLEWQZUKSJM-UHFFFAOYSA-N,CN(C)C(=O)COC(=O)c1ccccc1,-1.372
B-3411,"acetamide, 2-(benzoyloxy)-n,n-dipropyl-",COTRONQEHWUCRV-UHFFFAOYSA-N,CCCN(CCC)C(=O)COC(=O)c1ccccc1,-2.3791
B-3412,"acetamide, 2-(benzoyloxy)-n,n-dibutyl-",ORAHATGHUWMRCM-UHFFFAOYSA-N,CCCCN(CCCC)C(=O)COC(=O)c1ccccc1,-3.5614
B-3413,"acetamide, 2-(benzoyloxy)-n,n-bis(2-propenyl)-",KIBXYDHXHWRNTP-UHFFFAOYSA-N,C=CCN(CC=C)C(=O)COC(=O)c1ccccc1,-2.5626
B-3414,"glycine, n-[(benzoyloxy)acetyl]-n-methyl-",SHYSSTOSYAOGMS-UHFFFAOYSA-N,CN(CC(O)=O)C(=O)COC(=O)c1ccccc1,-2.254
B-3415,"piperidine, 1-[(benzoyloxy)acetyl]-",BCNWJNNKUUMDHS-UHFFFAOYSA-N,O=C(COC(=O)c1ccccc1)N2CCCCC2,-2.5011
B-3416,"morpholine, 4-[(benzoyloxy)acetyl]-",AVZVLGDSSQKRGL-UHFFFAOYSA-N,O=C(COC(=O)c1ccccc1)N2CCOCC2,-1.7734
B-3417,"butanoic acid, 2-(formylamino)-",QAISXTKWTBOYAA-UHFFFAOYSA-N,CCC(NC=O)C(O)=O,-0.5918
B-3418,tebuconazole,PXMNMQRDXWABCY-UHFFFAOYSA-N,CC(C)(C)C(O)(CCc1ccc(Cl)cc1)Cn2cncn2,-3.932
B-3419,"benzenesulfonamide, 4-[(2-hydroxyethyl)thio]-",LTXDVFFEVZJDGT-UHFFFAOYSA-N,N[S](=O)(=O)c1ccc(SCCO)cc1,-1.8239
B-3420,"benzenesulfonamide, 4-[(3-hydroxypropyl)thio]-",BHBPVVOUUXIZBX-UHFFFAOYSA-N,N[S](=O)(=O)c1ccc(SCCCO)cc1,-2.2472
B-3421,"benzenesulfonamide, 4-[(5-hydroxypentyl)thio]-",FDORWDSKZBVQSQ-UHFFFAOYSA-N,N[S](=O)(=O)c1ccc(SCCCCCO)cc1,-2.6618
B-3422,"hexanedioic acid, 2,5-dihydroxy-2,5-dimethyl-",KDLPLSPPCRJHGC-UHFFFAOYSA-N,CC(O)(CCC(C)(O)C(O)=O)C(O)=O,-0.8372
B-3423,"4-pyrimidinamine, 5-ethyl-2,6-dipropyl-",LMTGLSPLZHJYNH-UHFFFAOYSA-N,CCCc1nc(N)c(CC)c(CCC)n1,-2.5132
B-3424,diflufenzopyr,IRJQWZWMQCVOLA-DNTJNYDQSA-N,C\C(=N/NC(=O)Nc1cc(F)cc(F)c1)c2ncccc2C(O)=O,-3.7248
B-3425,"benzoic acid, o-phthalidyl-",UBTNYTYIXDTYQT-UHFFFAOYSA-N,OC(=O)c1ccccc1C2OC(=O)c3ccccc23,-3.1042
B-3426,azacyclononadecan-2-one,ABTUPTPDCSVHOI-UHFFFAOYSA-N,O=C1CCCCCCCCCCCCCCCCCN1,-2.8474
B-3428,propaquizafop,FROBCXTULYFHEJ-UHFFFAOYSA-N,CC(Oc1ccc(Oc2cnc3cc(Cl)ccc3n2)cc1)C(=O)OCCON=C(C)C,-5.8479
B-3429,fenpyroximate,YYJNOYZRYGDPNH-MFKUBSTISA-N,Cn1nc(C)c(\C=N\OCc2ccc(cc2)C(=O)OC(C)(C)C)c1Oc3ccccc3,-7.4604
B-3430,halfenprox,WIFXJBMOTMKRMM-UHFFFAOYSA-N,CC(C)(COCc1cccc(Oc2ccccc2)c1)c3ccc(OC(F)(F)Br)cc3,-9.9799
B-3431,triazamate,NKNFWVNSBIXGLL-UHFFFAOYSA-N,CCOC(=O)CSc1nc(nn1C(=O)N(C)C)C(C)(C)C,-2.861
B-3432,halofenozide,CNKHSLKYRMDDNQ-UHFFFAOYSA-N,CC(C)(C)N(NC(=O)c1ccc(Cl)cc1)C(=O)c2ccccc2,-4.4404
B-3433,tebufenozide,QYPNKSZPJQQLRK-UHFFFAOYSA-N,CCc1ccc(cc1)C(=O)NN(C(=O)c2cc(C)cc(C)c2)C(C)(C)C,-5.6281
B-3434,cyclanilide,DIOZMSACJPTBST-UHFFFAOYSA-N,OC(=O)C1CC1C(=O)Nc2ccc(Cl)cc2Cl,-3.8697
B-3435,fenoxaprop-p,MPPOHAUSNPTFAJ-UHFFFAOYSA-N,CC(Oc1ccc(Oc2oc3cc(Cl)ccc3n2)cc1)C(O)=O,-3.092
B-3436,imazamox,NUPJIGQFXCQJBK-UHFFFAOYSA-N,COCc1cnc(C2=NC(C)(C(C)C)C(=O)N2)c(c1)C(O)=O,-1.84
B-3437,fenbuconazole,RQDJADAKIFFEKQ-UHFFFAOYSA-N,Clc1ccc(CCC(Cn2cncn2)(C#N)c3ccccc3)cc1,-6.2264
B-3438,"2-oxetanone, 3-ethyl-4-methyl-, (3s-trans)-",PAIRTJOPUAQMRQ-WHFBIAKZSA-N,CC[C@H]1[C@H](C)OC1=O,-0.6665
B-3439,"azetidine, 1-[benzoyloxy(acetyl)]-",RSDMFNVRFBIYRK-UHFFFAOYSA-N,O=C(COC(=O)c1ccccc1)N2CCC2,-1.6085
B-3440,"1h-azepine, hexahydro-1-[(benzoyloxy)acetyl]-",FZBXGZBXWFNCQY-UHFFFAOYSA-N,O=C(COC(=O)c1ccccc1)N2CCCCCC2,-2.5421
B-3441,"4-piperidinol, 1-[(benzoyloxy)acetyl]-",YVWZWRFAFZRJGU-UHFFFAOYSA-N,OC1CCN(CC1)C(=O)COC(=O)c2ccccc2,-1.3486
B-3442,"l-proline, n-[(benzoyloxy)acetyl]-",GZXGHZDSFNQRKK-NSHDSACASA-N,OC(=O)[C@@H]1CCCN1C(=O)COC(=O)c2ccccc2,-1.5917
B-3443,"l-proline, n-[(benzoyloxy)acetyl]-, methyl ester",UQIKOYWGLUXMNE-LBPRGKRZSA-N,COC(=O)[C@@H]1CCCN1C(=O)COC(=O)c2ccccc2,-2.0841
B-3444,"propanamide, 3-(benzoyloxy)-n,n-dimethyl-",IZIGQEAJOSUMEQ-UHFFFAOYSA-N,CN(C)C(=O)CCOC(=O)c1ccccc1,-1.0994
B-3445,"butanamide, 4-(benzoyloxy)-n,n-dimethyl-",FNROXVCRPXYLRT-UHFFFAOYSA-N,CN(C)C(=O)CCCOC(=O)c1ccccc1,-1.2286
B-3446,"acetamide, n-acetyl-2-(benzoyloxy)-n-methyl-",JQUIGGQYRQVIIE-UHFFFAOYSA-N,CN(C(C)=O)C(=O)COC(=O)c1ccccc1,-2.8664
B-3447,"acetamide, 2-(benzoyloxy)-n-(1-methylethyl)-",FUWATACATASMHP-UHFFFAOYSA-N,CC(C)NC(=O)COC(=O)c1ccccc1,-2.7321
B-3448,"acetamide, 2-(benzoyloxy)-n-butyl-",FUKCEEDRHGCYHH-UHFFFAOYSA-N,CCCCNC(=O)COC(=O)c1ccccc1,-2.7588
B-3449,"acetamide, 2-(benzoyloxy)-n-hexyl-",ZTEWWPFYEDRRRL-UHFFFAOYSA-N,CCCCCCNC(=O)COC(=O)c1ccccc1,-3.902
B-3450,"propanamide, 2-[[(benzoyloxy)acetyl]amino]-",GUNGCOIXSOZDCM-UHFFFAOYSA-N,CC(NC(=O)COC(=O)c1ccccc1)C(N)=O,-2.7172
B-3451,bromuconazole,HJJVPARKXDDIQD-UHFFFAOYSA-N,Clc1ccc(c(Cl)c1)C2(CC(Br)CO2)Cn3cncn3,-3.8775
B-3452,novaluron,NJPPVKZQTLUDBO-UHFFFAOYSA-N,FC(OC(F)(F)F)C(F)(F)Oc1ccc(NC(=O)NC(=O)c2c(F)cccc2F)cc1Cl,-6.9675
B-3453,sec-butyl ethylamine,KFYKZKISJBGVMR-UHFFFAOYSA-N,CCNC(C)CC,-0.21
B-3454,"dl-lysine, n2-benzoyl-",IYHOIXNPULYXFO-UHFFFAOYSA-N,NCCCCC(NC(=O)c1ccccc1)C(O)=O,-2.2845
B-3455,fluthiacet-methyl,ZCNQYNHDVRPZIH-UHFFFAOYSA-N,COC(=O)CSc1cc(N=C2SC(=O)N3CCCCN23)c(F)cc1Cl,-5.6768
B-3456,l-altraric acid,DSLZVSRJTYRBFB-GJPGBQJBSA-N,O[C@@H]([C@@H](O)[C@@H](O)C(O)=O)[C@@H](O)C(O)=O,0.1999
B-3457,thiazopyr,YIJZJEYQBAAWRJ-UHFFFAOYSA-N,COC(=O)c1c(CC(C)C)c(C2=NCCS2)c(nc1C(F)F)C(F)(F)F,-5.2002
B-3458,Spiroxamine,PUYXTUJWRLOUCW-UHFFFAOYSA-N,CCCN(CC)CC1COC2(CCC(CC2)C(C)(C)C)O1,-2.8014
B-3459,"benzeneethanol, 4-hydroxy-3-nitro-",IPWLQQBKTBBLID-UHFFFAOYSA-N,OCCc1ccc(O)c(c1)[N+]([O-])=O,-1.1556
B-3460,"1(3h)-isobenzofuranone, 6-amino-3-methyl-",AJZKMDAYNXJZOR-UHFFFAOYSA-N,CC1OC(=O)c2cc(N)ccc12,-1.7891
B-3461,transfluthrin,DDVNRFNDOPPVQJ-HQJQHLMTSA-N,CC1(C)[C@H](C=C(Cl)Cl)[C@H]1C(=O)OCc2c(F)c(F)cc(F)c2F,-6.8137
B-3462,"2-thiophenesulfonamide, 4-(4-methoxybenzoyl)-",CNGDZXAWOIPFFX-UHFFFAOYSA-N,COc1ccc(cc1)C(=O)c2csc(c2)[S](N)(=O)=O,-4.4733
B-3463,"2-thiophenesulfonamide, 4-(4-hydroxybenzoyl)-",OJXOXNIZNJIMLU-UHFFFAOYSA-N,N[S](=O)(=O)c1scc(c1)C(=O)c2ccc(O)cc2,-2.8612
B-3464,"2-furansulfonamide, 4-(4-methoxybenzoyl)-",OIEIIZQFSICKJF-UHFFFAOYSA-N,COc1ccc(cc1)C(=O)c2coc(c2)[S](N)(=O)=O,-4.1481
B-3465,"2-thiophenesulfonamide, 4-(4-methylbenzoyl)-",GYTMHWVFKHLDEA-UHFFFAOYSA-N,Cc1ccc(cc1)C(=O)c2csc(c2)[S](N)(=O)=O,-4.4492
B-3466,flupoxam,AOQMRUTZEYVDIL-UHFFFAOYSA-N,NC(=O)c1nn(c2ccc(Cl)c(COCC(F)(F)C(F)(F)F)c2)c(n1)c3ccccc3,-5.6635
B-3467,tebufenpyrad,ZZYSLNWGKKDOML-UHFFFAOYSA-N,CCc1nn(C)c(C(=O)NCc2ccc(cc2)C(C)(C)C)c1Cl,-5.1086
B-3469,quizalofop-p-tefuryl,BBKDWPHJZANJGB-UHFFFAOYSA-N,CC(Oc1ccc(Oc2cnc3cc(Cl)ccc3n2)cc1)C(=O)OCC4CCCO4,-5.0303
B-3470,fipronil,ZOCSXAVNDGMNBV-UHFFFAOYSA-N,Nc1n(nc(C#N)c1[S](=O)C(F)(F)F)c2c(Cl)cc(cc2Cl)C(F)(F)F,-5.3619
B-3471,azimsulfuron,MAHPNPYYQAIOJN-UHFFFAOYSA-N,COc1cc(OC)nc(NC(=O)N[S](=O)(=O)c2n(C)ncc2c3nnn(C)n3)n1,-2.6066
B-3472,nitenpyram,CFRPSFYHXJZSBI-DHZHZOJOSA-N,CCN(Cc1ccc(Cl)nc1)\C(NC)=C\[N+]([O-])=O,0.4918
B-3473,fenazaquin,DMYHGDXADUDKCQ-UHFFFAOYSA-N,CC(C)(C)c1ccc(CCOc2ncnc3ccccc23)cc1,-6.1439
B-3474,"3-p-anisidino-propane-1,2-diol",AZKRMADMLBGMOJ-UHFFFAOYSA-N,COc1ccc(NCC(O)CO)cc1,-0.295
B-3476,furilazole,MCNOFYBITGAAGM-UHFFFAOYSA-N,CC1(C)OC(CN1C(=O)C(Cl)Cl)c2occc2,-3.1498
B-3477,Cyhalofop-butyl,TYIYMOAHACZAMQ-UHFFFAOYSA-N,CCCCOC(=O)C(C)Oc1ccc(Oc2ccc(cc2F)C#N)cc1,-5.708
B-3478,imazosulfuron,NAGRVUXEKKZNHT-UHFFFAOYSA-N,COc1cc(OC)nc(NC(=O)N[S](=O)(=O)c2n3ccccc3nc2Cl)n1,-4.7886
B-3479,"l-asparagine, n2-(chloroacetyl)-",MTOREWCHUWIPOO-VKHMYHEASA-N,NC(=O)C[C@H](NC(=O)CCl)C(O)=O,-0.3193
B-3480,rimsulfuron,MEFOUWRMVYJCQC-UHFFFAOYSA-N,CC[S](=O)(=O)c1cccnc1[S](=O)(=O)NC(=O)Nc2nc(OC)cc(OC)n2,-4.6349
B-3481,pymetrozine,QHMTXANCGGJZRX-WUXMJOGZSA-N,CC1=NNC(=O)N(C1)\N=C\c2cccnc2,-2.8745
B-3482,"hexanal, 5-hydroxy-, (r)-",YRMUTQRWVGDUBW-ZCFIWIBFSA-N,C[C@@H](O)CCCC=O,-0.463
B-3483,"phthalic acid, 3,4-dimethoxy-, 2-ethyl ester",YSSRAFLMFRNXKL-UHFFFAOYSA-M,CCOC(=O)c1ccc(OC)c(OC)c1C([O-])=O,-2.253
B-3484,"quinoline, 5,7-dichloro-4-(4-fluorophenoxy)-",WRPIRSINYZBGPK-UHFFFAOYSA-N,Fc1ccc(Oc2ccnc3cc(Cl)cc(Cl)c23)cc1,-6.4243
B-3485,metconazole,XWPZUHJBOLQNMN-UHFFFAOYSA-N,CC1(C)CCC(Cc2ccc(Cl)cc2)C1(O)Cn3cncn3,-4.3288
B-3486,ipconazole,QTYCMDBMOLSEAM-UHFFFAOYSA-N,CC(C)C1CCC(Cc2ccc(Cl)cc2)C1(O)Cn3cncn3,-4.6828
B-3487,cafenstrole,HFEJHAAIJZXXRE-UHFFFAOYSA-N,CCN(CC)C(=O)n1cnc(n1)[S](=O)(=O)c2c(C)cc(C)cc2C,-5.1467
B-3488,"2-butenamide, n-(4-hydroxyphenyl)-",DAQBOXIXALYCPJ-UHFFFAOYSA-N,CC=CC(=O)Nc1ccc(O)cc1,-2.6464
B-3489,"butanamide, n-(aminocarbonyl)-2-cyano-2-ethyl-",RMBXZSQVALTSOC-UHFFFAOYSA-N,CCC(CC)(C#N)C(=O)NC(N)=O,-1.564
B-3490,ethoxysulfuron,UWVKRNOCDUPIDM-UHFFFAOYSA-N,CCOc1ccccc1O[S](=O)(=O)NC(=O)Nc2nc(OC)cc(OC)n2,-4.1853
B-3491,carfentrazone-ethyl,MLKCGVHIFJBRCD-UHFFFAOYSA-N,CCOC(=O)C(Cl)Cc1cc(N2N=C(C)N(C(F)F)C2=O)c(F)cc1Cl,-4.2727
B-3492,clofencet,PIZCXVUFSNPNON-UHFFFAOYSA-N,CCC1=C(C(O)=O)C(=O)C=NN1c2ccc(Cl)cc2,0.4
B-3493,"4-Chlorophenyl-2-(1H-1,2,4-triazol-yl)cycloheptanol",WRGKWWRFSUGDPX-UHFFFAOYSA-N,OC1(CCCCCC1n2cncn2)c3ccc(Cl)cc3,-3.3681
B-3494,pyraflufen-ethyl,APTZNLHMIGJTEW-UHFFFAOYSA-N,CCOC(=O)COc1cc(c(F)cc1Cl)c2nn(C)c(OC(F)F)c2Cl,-5.6161
B-3495,thifluzamide,WOSNCVAPUOFXEH-UHFFFAOYSA-N,Cc1sc(C(=O)Nc2c(Br)cc(OC(F)(F)F)cc2Br)c(n1)C(F)(F)F,-5.5186
B-3496,fludioxonil,MUJOIMFVNIBMKC-UHFFFAOYSA-N,FC1(F)Oc2cccc(c2O1)c3c[nH]cc3C#N,-5.1395
B-3497,famoxadone,PCCSBWNGDMYFCW-UHFFFAOYSA-N,CC1(OC(=O)N(Nc2ccccc2)C1=O)c3ccc(Oc4ccccc4)cc3,-6.8573
B-3498,azoxystrobin,WFDXOXNFNRHQEC-GHRIWEEISA-N,CO\C=C(C(=O)OC)/c1ccccc1Oc2cc(Oc3ccccc3C#N)ncn2,-4.8276
B-3499,Metominostrobin,HIIRDDUVRXCDBN-SDXDJHTJSA-N,CNC(=O)C(=N/OC)\c1ccccc1Oc2ccccc2,-3.3466
B-3500,Acibenzolar-s-methyl,UELITFHSCLAHKR-UHFFFAOYSA-N,CSC(=O)c1cccc2nnsc12,-4.4363
B-3501,acetamiprid,WCXDHFDTOYPNIE-UHFFFAOYSA-N,CN(Cc1ccc(Cl)nc1)C(C)=NC#N,-1.7244
B-3502,mefenpyr-diethyl,OPGCOAPTHCZZIW-UHFFFAOYSA-N,CCOC(=O)C1=NN(c2ccc(Cl)cc2Cl)C(C)(C1)C(=O)OCC,-4.271
B-3503,"benzenesulfonamide, 4-[(4-hydroxybutyl)thio]-",WDXVDWRSYOFRBP-UHFFFAOYSA-N,N[S](=O)(=O)c1ccc(SCCCCO)cc1,-2.5141
B-3504,"benzenesulfonamide, 4-(3-hydroxypropyl)-",NSNHWGDFYDLMBS-UHFFFAOYSA-N,N[S](=O)(=O)c1ccc(CCCO)cc1,-1.032
B-3505,"benzenesulfonamide, 4-(4-hydroxybutyl)-",NCRQTZXHMKBWLU-UHFFFAOYSA-N,N[S](=O)(=O)c1ccc(CCCCO)cc1,-1.1931
B-3506,"benzenesulfonamide, 4-(5-hydroxypentyl)-",KFRDUIZQGPSJJM-UHFFFAOYSA-N,N[S](=O)(=O)c1ccc(CCCCCO)cc1,-1.9712
B-3507,triflusulfuron-methyl,AKTQJCBOGPBERP-UHFFFAOYSA-N,CN(C)c1nc(NC(=O)N[S](=O)(=O)c2c(C)cccc2C(O)=O)nc(OCC(F)(F)F)n1,-5.6798
B-3508,pyriminobac-methyl,USSIUIGPBLPCDF-KEBDBYFISA-N,CO\N=C(/C)c1cccc(Oc2nc(OC)cc(OC)n2)c1C(=O)OC,-3.6037
B-3509,fluquinconazole,IJJVMEJXYNJXOJ-UHFFFAOYSA-N,Fc1ccc2N=C(n3cncn3)N(C(=O)c2c1)c4ccc(Cl)cc4Cl,-5.5754
B-3510,cyclosulfamuron,OFSLKOLYLQSJPB-UHFFFAOYSA-N,COc1cc(OC)nc(NC(=O)N[S](=O)(=O)Nc2ccccc2C(=O)C3CC3)n1,-6.3943
B-3511,imidacloprid,YWTYJOPNNQFBPC-UHFFFAOYSA-N,[O-][N+](=O)NC1=NCCN1Cc2ccc(Cl)nc2,-2.6223
B-3512,metosulam,VGHPMIFEKOFHHQ-UHFFFAOYSA-N,COc1cc(OC)n2nc(nc2n1)[S](=O)(=O)Nc3c(Cl)ccc(C)c3Cl,-3.3204
B-3513,isoxaflutole,OYIKARCXOQLFHF-UHFFFAOYSA-N,C[S](=O)(=O)c1cc(ccc1C(=O)c2cnoc2C3CC3)C(F)(F)F,-4.7631
B-3514,sulfosulfuron,RBSXHDIPCIWOMG-UHFFFAOYSA-N,CC[S](=O)(=O)c1nc2ccccn2c1[S](=O)(=O)NC(=O)Nc3nc(OC)cc(OC)n3,-4.4191
B-3515,fluthiamide,IANUJLZYFUDJIH-UHFFFAOYSA-N,CC(C)N(C(=O)COc1sc(nn1)C(F)(F)F)c2ccc(F)cc2,-3.8121
B-3516,Kresoxim-methy,ZOTBXTZVPHCKPN-HTXNQAPBSA-N,CO\N=C(C(=O)OC)/c1ccccc1COc2ccccc2C,-5.195
B-3517,oxasulfuron,IOXAXYHXMLCCJJ-UHFFFAOYSA-N,Cc1cc(C)nc(NC(=O)N[S](=O)(=O)c2ccccc2C(=O)OC3COC3)n1,-3.893
B-3518,methyl (1-(4-methyl)phenylsulfonyl) cyclopropane,GQFAQGSQOWKLHH-UHFFFAOYSA-N,COC(=O)C1(CC1)[S](=O)(=O)c2ccc(C)cc2,-2.8803
B-3519,ethyl (1-(4-methyl)phenylsulfonyl) cyclopropane,WPUICWRULLWSQY-UHFFFAOYSA-N,CCOC(=O)C1(CC1)[S](=O)(=O)c2ccc(C)cc2,-3.0104
B-3520,isopropyl (1-(4-methyl)phenylsulfonyl) cycloprop,RHDLXXXPRNASTE-UHFFFAOYSA-N,CC(C)OC(=O)C1(CC1)[S](=O)(=O)c2ccc(C)cc2,-3.2307
B-3521,methyl (1-(4-chloro)phenylsulfonyl) cyclopropane,MKKNYRRAGXWBDZ-UHFFFAOYSA-N,COC(=O)C1(CC1)[S](=O)(=O)c2ccc(Cl)cc2,-3.3086
B-3522,isopropyl (1-(4-chloro)phenylsulfonyl) cycloprop,SAFRSRKBLQVPQW-UHFFFAOYSA-N,CC(C)OC(=O)C1(CC1)[S](=O)(=O)c2ccc(Cl)cc2,-3.5401
B-3523,tert-butyl (1-(4-chloro)phenylsulfonyl) cyclopro,GMJAXKKUTHHHMD-UHFFFAOYSA-N,CC(C)(C)OC(=O)C1(CC1)[S](=O)(=O)c2ccc(Cl)cc2,-4.1206
B-3524,methyl (1-(4-bromo)phenylsulfonyl) cyclopropane,IPABBDLXSJIQEG-UHFFFAOYSA-N,COC(=O)C1(CC1)[S](=O)(=O)c2ccc(Br)cc2,-3.6703
B-3525,methyl (1-(4-nitro)phenylsulfonyl) cyclopropane,JPEDHHGXVGENMN-UHFFFAOYSA-N,COC(=O)C1(CC1)[S](=O)(=O)c2ccc(cc2)[N+]([O-])=O,-3.3797
B-3526,isopropyl (1-(4-nitro)phenylsulfonyl) cyclopropa,WUAIGAOSYROCOI-UHFFFAOYSA-N,CC(C)OC(=O)C1(CC1)[S](=O)(=O)c2ccc(cc2)[N+]([O-])=O,-4.2605
B-3527,trovafloxacin,WVPSKSLAZQPAKQ-SOSAQKQKSA-N,NC1[C@H]2CN(C[C@@H]12)c3nc4N(C=C(C(O)=O)C(=O)c4cc3F)c5ccc(F)cc5F,-4.5296
B-3528,cloransulam,BIKACRYIQSLICJ-UHFFFAOYSA-N,CCOc1nc(F)cc2nc(nn12)[S](=O)(=O)Nc3c(Cl)cccc3C(=O)OC,-4.4292
B-3529,Bifenazate,VHLKTXFWDRXILV-UHFFFAOYSA-N,COc1ccc(cc1NNC(=O)OC(C)C)c2ccccc2,-4.9025
B-3530,etoxazole,IXSZQYVWNJNRAL-UHFFFAOYSA-N,CCOc1cc(ccc1C2COC(=N2)c3c(F)cccc3F)C(C)(C)C,-6.6782
B-3531,fentrazamide,LLQPHQFNMLZJMP-UHFFFAOYSA-N,CCN(C1CCCCC1)C(=O)N2N=NN(C2=O)c3ccccc3Cl,-5.1821
B-3532,isopropyl (1-(4-nitro)phenylsulfonyl) cyclobutan,XWDINLQQGHPOQQ-UHFFFAOYSA-N,CC(C)OC(=O)C1(CCC1)[S](=O)(=O)c2ccc(cc2)[N+]([O-])=O,-3.7599
B-3533,isopropyl (1-(4-nitro)phenylsulfonyl) cyclohexan,DUNHJGJBRJZBJD-UHFFFAOYSA-N,CC(C)OC(=O)C1(CCCCC1)[S](=O)(=O)c2ccc(cc2)[N+]([O-])=O,-4.8796
B-3534,isopropyl (1-(4-nitro)phenylsulfonyl) cyclohepta,RWOBYZRHHZGFHD-UHFFFAOYSA-N,CC(C)OC(=O)C1(CCCCCC1)[S](=O)(=O)c2ccc(cc2)[N+]([O-])=O,-5.0706
B-3535,me (1-(4-bromo)phenylsulfonyl) cyclobutane carbo,DXGXTGYXCFBYDJ-UHFFFAOYSA-N,COC(=O)C1(CCC1)[S](=O)(=O)c2ccc(Br)cc2,-3.55
B-3536,me (1-(4-bromo)phenylsulfonyl) cyclopentane carb,GTCWZRDSJBFIDT-UHFFFAOYSA-N,COC(=O)C1(CCCC1)[S](=O)(=O)c2ccc(Br)cc2,-4.0104
B-3537,me (1-(4-bromo)phenylsulfonyl) cyclohexane carbo,FRWFRRPXOYMNKY-UHFFFAOYSA-N,COC(=O)C1(CCCCC1)[S](=O)(=O)c2ccc(Br)cc2,-4.4786
B-3538,me (1-(4-chloro)phenylsulfonyl) cyclobutane carb,GWBJAJHNRFKJON-UHFFFAOYSA-N,COC(=O)C1(CCC1)[S](=O)(=O)c2ccc(Cl)cc2,-2.9996
B-3539,isopropyl (1-(4-chloro)phenylsulfonyl) cyclopent,AWDYZLGQTRYRJA-UHFFFAOYSA-N,CC(C)OC(=O)C1(CCCC1)[S](=O)(=O)c2ccc(Cl)cc2,-4.6498
B-3540,ethyl (1-(4-methyl)phenylsulfonyl) cyclobutane c,CTCKUDTVPBDAHJ-UHFFFAOYSA-N,CCOC(=O)C1(CCC1)[S](=O)(=O)c2ccc(C)cc2,-2.9594
B-3541,methyl (1-phenylsulfonyl) cyclobutane carboxylat,ACFDLHBDXXPXBY-UHFFFAOYSA-N,COC(=O)C1(CCC1)[S](=O)(=O)c2ccccc2,-3.0005
B-3542,methyl (1-phenylsulfonyl) cyclopentane carboxyla,AXNXBYAMXGSWLR-UHFFFAOYSA-N,COC(=O)C1(CCCC1)[S](=O)(=O)c2ccccc2,-2.5501
B-3544,Brofluthrinate,BUHNCQOJJZAOMJ-UHFFFAOYSA-N,CC(C)C(C(=O)OC(C#N)c1cccc(Oc2ccc(Br)cc2)c1)c3ccc(OC(F)F)cc3,-8.1731
B-3545,Methoxyfenozide,QCAWEPFNJXQPAN-UHFFFAOYSA-N,COc1cccc(C(=O)NN(C(=O)c2cc(C)cc(C)c2)C(C)(C)C)c1C,-5.5664
B-3546,isopropazol,FKLQIONHGSFYJY-UHFFFAOYSA-N,CC(C)OC(=O)c1cc(c(F)cc1Cl)c2nn(C)c(c2Br)C(F)(F)F,-6.9227
B-3547,ethyl 2-formamido-(furan-3-yl)acrylate,BXQGDXNUVKQCPP-UHFFFAOYSA-N,CCOC(=O)C(NC=O)=Cc1cocc1,-2.7477
B-3550,"2,3-dimethylbutane",ZFFMLCVRJBZUDZ-UHFFFAOYSA-N,CC(C)C(C)C,-3.5832
B-3551,3-methylpentane,PFEOZHBOMNWTJB-UHFFFAOYSA-N,CCC(C)CC,-3.6826
B-3552,methylcyclopentane,GDOPTJXRTPNYNR-UHFFFAOYSA-N,CC1CCCC1,-3.3019
B-3557,octane,TVMXDCGIABBOFY-UHFFFAOYSA-N,CCCCCCCC,-5.2382
B-3559,n-heptane,IMNFDUFMRHMDMM-UHFFFAOYSA-N,CCCCCCC,-4.4694
B-3561,cyclooctane,WJTCGQSWYFHTAC-UHFFFAOYSA-N,C1CCCCCCC1,-4.1524
B-3562,"2,2-dimethylpropane",CRSOQBOWXPBRES-UHFFFAOYSA-N,CC(C)(C)C,-3.3371
B-3563,benzo(a)pyrene,FMMWHPNWAFZXNH-UHFFFAOYSA-N,c1ccc2c(c1)cc3ccc4cccc5ccc2c3c45,-8.1924
B-3564,"dibenz(a,h)anthracene",LHRCREOYAASXPZ-UHFFFAOYSA-N,c1ccc2c(c1)ccc3cc4c(ccc5ccccc45)cc23,-8.6679
B-3565,3-methylcholanthrene,PPQNQXQZIWHJRB-UHFFFAOYSA-N,Cc1ccc2cc3c(ccc4ccccc34)c5CCc1c25,-7.9663
B-3566,benz(a)anthracene,DXBHBZVCASKNBY-UHFFFAOYSA-N,c1ccc2cc3c(ccc4ccccc34)cc2c1,-7.3854
B-3569,phenanthrene,YNPNZTXNASCQKK-UHFFFAOYSA-N,c1ccc2c(c1)ccc3ccccc23,-5.1903
B-3575,dibenzothiophene,IYYZUPMFVPLQIF-UHFFFAOYSA-N,s1c2ccccc2c3ccccc13,-5.0981
B-3576,benzo[ghi]perylene,GYFAGKUZYNFMBN-UHFFFAOYSA-N,c1cc2ccc3ccc4ccc5cccc6c(c1)c2c3c4c56,-9.0265
B-3579,acenaphthylene,HXGDTGSAIMULJN-UHFFFAOYSA-N,c1cc2cccc3C=Cc(c1)c23,-3.9756
B-3580,"dibenzo[a,c]anthracene",RAASUWZPTOJQAY-UHFFFAOYSA-N,c1ccc2cc3c4ccccc4c5ccccc5c3cc2c1,-8.2405
B-3581,triphenylene,SLGBZMMZGDRARJ-UHFFFAOYSA-N,c1ccc2c(c1)c3ccccc3c4ccccc24,-6.7447
B-3582,chrysene,WDECIBYCCFPHNR-UHFFFAOYSA-N,c1ccc2c(c1)ccc3c4ccccc4ccc23,-8.0575
B-3583,"dibenzo[a,j]anthracene",KLIHYVJAYWCEDM-UHFFFAOYSA-N,c1ccc2c(c1)ccc3cc4ccc5ccccc5c4cc23,-8.4318
B-3585,11h-benzo(b)fluorene,HAPOJKSPCGLOOD-UHFFFAOYSA-N,C1c2ccccc2c3cc4ccccc4cc13,-7.733
B-3586,9-nitroanthracene,LSIKFJXEYJIZNB-UHFFFAOYSA-N,[O-][N+](=O)c1c2ccccc2cc3ccccc13,-6.2918
B-3588,2-methylanthracene,GYMFBYTZOGMSQJ-UHFFFAOYSA-N,Cc1ccc2cc3ccccc3cc2c1,-6.9555
B-3590,"9,10-dimethylanthracene",JTGMTYWYUZDRBK-UHFFFAOYSA-N,Cc1c2ccccc2c(C)c3ccccc13,-6.5663
B-3591,1-methylphenanthrene,DOWJXOHBNXRUOD-UHFFFAOYSA-N,Cc1cccc2c1ccc3ccccc23,-5.8541
B-3592,1-methylfluorene,GKEUODMJRFDLJY-UHFFFAOYSA-N,Cc1cccc2c1Cc3ccccc23,-5.2184
B-3593,2-methylphenanthrene,KANLOADZXMMCQA-UHFFFAOYSA-N,Cc1ccc2c(ccc3ccccc23)c1,-5.8367
B-3594,ethylanthracene,ZXAGXLDEMUNQSH-UHFFFAOYSA-N,CCc1ccc2cc3ccccc3cc2c1,-6.8863
B-3598,t-butylbenzene,YTZKOQUCBOVLHL-UHFFFAOYSA-N,CC(C)(C)c1ccccc1,-3.658
B-3599,cumene,RWGFKTVRMDUZSP-UHFFFAOYSA-N,CC(C)c1ccccc1,-3.2924
B-3605,bibenzyl,QWUWMCYKGHVNAV-UHFFFAOYSA-N,C(Cc1ccccc1)c2ccccc2,-4.6272
B-3606,n-propylbenzene,ODLMAHJVESYWTB-UHFFFAOYSA-N,CCCc1ccccc1,-3.3622
B-3607,n-butylbenzene,OCKPCBLVNKHBMX-UHFFFAOYSA-N,CCCCc1ccccc1,-4.0559
B-3613,o-diethylbenzene,KVNYFPKFSJIPBJ-UHFFFAOYSA-N,CCc1ccccc1CC,-3.2759
B-3615,m-diethylbenzene,AFZZYIJIWUTJFO-UHFFFAOYSA-N,CCc1cccc(CC)c1,-3.7476
B-3616,"1,2,3-trimethylbenzene",FYGHSUNMUKGBRK-UHFFFAOYSA-N,Cc1cccc(C)c1C,-3.2037
B-3617,ethynyl benzene,UEXCJVNBTNXOEH-UHFFFAOYSA-N,C#Cc1ccccc1,-2.3502
B-3618,pentylbenzene,PWATWSYOIIXYMA-UHFFFAOYSA-N,CCCCCc1ccccc1,-4.6434
B-3619,isobutylbenzene,KXUHSQYYJYAXGZ-UHFFFAOYSA-N,CC(C)Cc1ccccc1,-4.1235
B-3620,1-ethyl-2-methylbenzene,HYFLWBNQFMXCPA-UHFFFAOYSA-N,CCc1ccccc1C,-3.2072
B-3621,p-tolyltoluene,RZTDESRVPFKCBH-UHFFFAOYSA-N,Cc1ccc(cc1)c2ccc(C)cc2,-6.0177
B-3622,p-ethyltoluene,JRLPEMVDPFPYPJ-UHFFFAOYSA-N,CCc1ccc(C)cc1,-3.1026
B-3623,pentamethylbenzene,BEZDDPMMPIDMGJ-UHFFFAOYSA-N,Cc1cc(C)c(C)c(C)c1C,-3.9807
B-3624,n-hexylbenzene,LTEQMZWBSYACLV-UHFFFAOYSA-N,CCCCCCc1ccccc1,-5.2551
B-3625,octylbenzene,CDKDZKXSXLNROY-UHFFFAOYSA-N,CCCCCCCCc1ccccc1,-6.46
B-3626,pentachloronitrobenzene,LKPLKUMXSAEKID-UHFFFAOYSA-N,[O-][N+](=O)c1c(Cl)c(Cl)c(Cl)c(Cl)c1Cl,-5.8269
B-3631,"2,4,5-trichloronitrobenzene",IBRBMZRLVYKVRF-UHFFFAOYSA-N,[O-][N+](=O)c1cc(Cl)c(Cl)cc1Cl,-3.8866
B-3632,2-chlorotoluene,IBSQPLPBRSHTTG-UHFFFAOYSA-N,Cc1ccccc1Cl,-2.5295
B-3636,"1,4-dibromobenzene",SWJPEBQEEAHIGZ-UHFFFAOYSA-N,Brc1ccc(Br)cc1,-4.0717
B-3637,p-bromotoluene,ZBTMRBYMKUEVEU-UHFFFAOYSA-N,Cc1ccc(Br)cc1,-3.1917
B-3638,p-bromochlorobenzene,NHDODQWIKUYWMW-UHFFFAOYSA-N,Clc1ccc(Br)cc1,-3.6298
B-3641,m-dibromobenzene,JSRLURSZEMLAFO-UHFFFAOYSA-N,Brc1cccc(Br)c1,-3.5435
B-3642,m-bromochlorobenzene,JRGGUPZKKTVKOV-UHFFFAOYSA-N,Clc1cccc(Br)c1,-3.2102
B-3646,"2,3,5,6-tetrachloronitrobenzene",XQTLDIFVVHJORV-UHFFFAOYSA-N,[O-][N+](=O)c1c(Cl)c(Cl)cc(Cl)c1Cl,-5.0963
B-3649,p-fluorobenzyl chloride,IZXWCDITFDNEBY-UHFFFAOYSA-N,Fc1ccc(CCl)cc1,-2.5442
B-3652,p-difluorobenzene,QUGUFLJIAFISSW-UHFFFAOYSA-N,Fc1ccc(F)cc1,-1.9709
B-3654,o-dibromobenzene,WQONPSCCEXUXTQ-UHFFFAOYSA-N,Brc1ccccc1Br,-3.5
B-3655,m-bromotoluene,WJIFKOVZNJTSGO-UHFFFAOYSA-N,Cc1cccc(Br)c1,-3.523
B-3658,m-chlorofluorobenzene,VZHJIJZEOCBKRA-UHFFFAOYSA-N,Fc1cccc(Cl)c1,-2.3457