ID,Name,InChIKey,SMILES,Solubility
C-2303,"2,3,3',4,4',5'-hexachlorodiphenyl  ether",FEIDIWDEJQVIPO-UHFFFAOYSA-N,ClC1=C(Cl)C(=C(OC2=CC(=C(Cl)C(=C2)Cl)Cl)C=C1)Cl,-8.49
C-2304,imazaquine,CABMTIJINOIHOD-UHFFFAOYSA-N,CC(C)C1(C)N=C(NC1=O)C2=NC3=C(C=CC=C3)C=C2C(O)=O,-3.72
C-2305,1-acetoxymethyl-3-benzoyl-5-fluorouracil,PUXWCWJFSQGEGX-UHFFFAOYSA-N,CC(=O)OCN1C=C(F)C(=O)N(C1=O)C(=O)C2=CC=CC=C2,-3.34
C-2306,o-[(4-morpholinomethyl)benzoyl]metronidazole,QFLZEYUXHIFILY-UHFFFAOYSA-N,CC1=NC=C([N]1CCOC(=O)C2=CC=C(CN3CCOCC3)C=C2)[N+]([O-])=O,-2.89
C-2307,"n1-(3,4-dichlorophenyl)sulfanilamide;  3,4-dichloro-1-sulfabenzene",CDCMAMVXGZBIAX-UHFFFAOYSA-N,NC1=CC=C(C=C1)[S](=O)(=O)NC2=CC=C(Cl)C(=C2)Cl,-4.94
C-2308,5-amino-2-methoxy-sulfabenzene,XNBPWMJDOGVRNA-UHFFFAOYSA-N,COC1=C(N[S](=O)(=O)C2=CC=C(N)C=C2)C=C(N)C=C1,-5.08
C-2309,enoxacin,IDYZIJYBMGIQMJ-UHFFFAOYSA-N,CCN1C=C(C(O)=O)C(=O)C2=C1N=C(N3CCNCC3)C(=C2)F,-2.92
C-2310,"5-[(n,n-dimethylaminosulfonyl)imido]-4-methyl-2-aminosulfonyl-1,3,4-thiadiazoline",IXUHQPKKIHYXSU-UHFFFAOYSA-N,CN(C)[S](=O)(=O)N=C1SC(=NN1C)[S](N)(=O)=O,-2.7
C-2311,"2,2',3,4',5,5'-hexachlorodiphenyl  ether",SFTBUGPDOJDENF-UHFFFAOYSA-N,ClC1=CC(=C(Cl)C(=C1)Cl)OC2=CC(=C(Cl)C=C2Cl)Cl,-8.41
C-2313,"2,2',3,3',4,5'-hexachlorodiphenyl  ether",JTEWACHFMNTRBB-UHFFFAOYSA-N,ClC1=CC(=C(Cl)C(=C1)OC2=C(Cl)C(=C(Cl)C=C2)Cl)Cl,-8.55
C-2315,"2,3,3',4',5,6-hexachlorodiphenyl  ether",YLAYOOJLJKJGCF-UHFFFAOYSA-N,ClC1=CC=C(OC2=C(Cl)C(=CC(=C2Cl)Cl)Cl)C=C1Cl,-8.3
C-2316,"2,2',3,4,4',6-hexachlorodiphenyl  ether",BIWCEXHDIQZFHI-UHFFFAOYSA-N,ClC1=CC(=C(OC2=C(Cl)C(=C(Cl)C=C2Cl)Cl)C=C1)Cl,-8.47
C-2317,n-(5-ethoxycarbonylpyridin-2-yl)benzenesulfonamide,OPJMLVHGUKLBMN-UHFFFAOYSA-N,CCOC(=O)C1=CN=C(N[S](=O)(=O)C2=CC=CC=C2)C=C1,-4.24
C-2318,n-benzoyl-o-acetyl-l-tyrosinamide,QJGVNUOLWAHMIO-UHFFFAOYSA-N,CC(=O)OC1=CC=C(CC(NC(=O)C2=CC=CC=C2)C(N)=O)C=C1,-3.89
C-2319,"2,2',3,4',5',6-hexachlorodiphenyl  ether",RDKSFIZNZGWNLA-UHFFFAOYSA-N,ClC1=CC=C(Cl)C(=C1Cl)OC2=C(Cl)C=C(Cl)C(=C2)Cl,-7.88
C-2321,"3-[2-(n-methylguanidino)-acetylamino]-n-(5-sulfamoyl-[1,3,4]thiadiazol-2-yl)propionamide",DCHWBJNKHKXUAM-UHFFFAOYSA-N,CN(CC(=O)NCCC(=O)NC1=NN=C(S1)[S](N)(=O)=O)C(N)=N,-1.13
C-2322,8-styryltheophylline,BTFAUMMRKLKUJP-CMDGGOBGSA-N,CN1C(=O)N(C)C2=C([NH]C(=N2)\C=C\C3=CC=CC=C3)C1=O,-6.66
C-2323,"2,2',3,4',5,6-hexachlorodiphenyl  ether",DIBYIHMYEPMGKC-UHFFFAOYSA-N,ClC1=CC(=C(OC2=C(Cl)C(=CC(=C2Cl)Cl)Cl)C=C1)Cl,-8.42
C-2324,"2,2',3,3',4,6'-hexachlorodiphenyl  ether",YDVYLSIVXYLBBX-UHFFFAOYSA-N,ClC1=C(Cl)C(=C(OC2=C(Cl)C=CC(=C2Cl)Cl)C=C1)Cl,-7.96
C-2325,iopanoic acid,OIRFJRBSRORBCM-UHFFFAOYSA-N,CCC(CC1=C(I)C(=C(I)C=C1I)N)C(O)=O,-4.58
C-2326,methazolamide analog a14,TUDRWVDXIQKGIO-UHFFFAOYSA-N,CN1N=C(SC1=N[S](=O)(=O)C(F)(F)F)[S](N)(=O)=O,-1.16
C-2329,8-phenylcaffeine,MBYIBRUTNFFDFL-UHFFFAOYSA-N,CN1C(=O)N(C)C2=C([N](C)C(=N2)C3=CC=CC=C3)C1=O,-3.31
C-2330,nitrofuranylamide derivative (lee 952);  n-methyl-n-[4-(2-morpholin-4-ylethoxy)benzyl]-5-nitro-2-furamide,OWPRYUHHSFTVHN-UHFFFAOYSA-N,CN(CC1=CC=C(OCCN2CCOCC2)C=C1)C(=O)C3=CC=C(O3)[N+]([O-])=O,-2.29
C-2332,n1-(1-allyl-2-oxopyrimidin-4-yl)sulfanilamide;  1-allyl-4-sulfapyrimidin-2-one,VIAUKNFHMJPBHP-UHFFFAOYSA-N,NC1=CC=C(C=C1)[S](=O)(=O)NC2=NC(=O)N(CC=C)C=C2,-3.11
C-2334,2-(n4-acetyl)sulfathiazole,KXNXWINFSDKMHD-UHFFFAOYSA-N,CC(=O)NC1=CC=C(C=C1)[S](=O)(=O)NC2=NC=CS2,-3.43
C-2335,n1-(1-isopropyl-2-oxopyrimidin-4-yl)sulfanilamide;  1-isopropyl-4-sulfapyrimidin-2-one,LRUSAJDEBDJPKV-UHFFFAOYSA-N,CC(C)N1C=CC(=NC1=O)N[S](=O)(=O)C2=CC=C(N)C=C2,-3.17
C-2339,"entacapone analog (2a);  (e)-2-cyano-n,n-diethyl-3-[3-n-ethylcarbamoyloxy-4-hydroxy-5-nitrophenyl]propenamide",HVMGUPMFFCLQNI-GHXNOFRVSA-N,CCNC(=O)OC1=C(O)C(=CC(=C1)\C=C(C#N)/C(=O)N(CC)CC)[N+]([O-])=O,-3.18
C-2341,"s6,9-bis(pentanoyloxymethyl)-6-mercaptopurine; 9-(pentanoyloxymethyl)-6-(pentanoyloxymethylthio)purine",RIVOAEXQOBGQPO-UHFFFAOYSA-N,CCCCC(=O)OCSC1=NC=NC2=C1N=C[N]2COC(=O)CCCC,-4.33
C-2343,4-nitro-n-(4-methoxyphenyl)benzenesulfonamide;  1-(4-nitrophenylsulfonamido)-4-methoxybenzene,PGNXXIOBJLPXFL-UHFFFAOYSA-N,COC1=CC=C(N[S](=O)(=O)C2=CC=C(C=C2)[N+]([O-])=O)C=C1,-4.64
C-2344,amoxicillin,LSQZJLSUYDQPKJ-UHFFFAOYSA-N,CC1(C)SC2C(NC(=O)C(N)C3=CC=C(O)C=C3)C(=O)N2C1C(O)=O,-2.17
C-2345,"1,3-dipropyl-8-(3-noradamantyl)xanthine",PJBFVWGQFLYWCB-UHFFFAOYSA-N,CCCN1C(=O)N(CCC)C2=C([NH]C(=N2)[C]34CC5[CH2]C(C[CH]3C5)C4)C1=O,-5.85
C-2346,"4-(4-bromo-2-fluorophenylamino)-5-fluoro-1-methyl-6-oxo-1,6-dihydropyridine-3-carboxamide",LNCZLEZOTUBASE-UHFFFAOYSA-N,CN1C=C(C(N)=O)C(=C(F)C1=O)NC2=C(F)C=C(Br)C=C2,-4.14
C-2347,"naproxen,  derivat 3b",GVNYQGKVULMAET-UHFFFAOYSA-N,COC1=CC=C2C=C(C=CC2=C1)C(C)C(=O)OCCOC(=O)C(N)CC(C)C,-3.82
C-2348,n1-(1-butyl-2-oxopyrimidin-4-yl)sulfanilamide;  1-butyl-4-sulfapyrimidin-2-one,YLHKVSOBVLMBIT-UHFFFAOYSA-N,CCCCN1C=CC(=NC1=O)N[S](=O)(=O)C2=CC=C(N)C=C2,-3.09
C-2349,"naproxen,  derivat 3c",ZNNNHDSEKOSIMH-UHFFFAOYSA-N,CCC(C)C(N)C(=O)OCCOC(=O)C(C)C1=CC2=CC=C(OC)C=C2C=C1,-3.82
C-2350,"1-(2,6-difluorophenyl)-1h,3h-thiazolo[3,4-a]benzimidazole;  nsc 625487",AMLBAOPYPUXEQF-UHFFFAOYSA-N,FC1=C(C2SCC3=NC4=C(C=CC=C4)[N]23)C(=CC=C1)F,-3.76
C-2351,"theophyllin-7-ylmethyl 3-(n,n-diethylcarbamoyl)propionate; n,n-diethylsuccinamic acid theophyllin-7-ylmethyl ester",GEUZJBMJDHYJEC-UHFFFAOYSA-N,CCN(CC)C(=O)CCC(=O)OC[N]1C=NC2=C1C(=O)N(C)C(=O)N2C,-1.14
C-2354,n1-(1-isobutyl-2-oxopyrimidin-4-yl)sulfanilamide;  1-isobutyl-4-sulfapyrimidin-2-one,IMPWCIFPLYQYLB-UHFFFAOYSA-N,CC(C)CN1C=CC(=NC1=O)N[S](=O)(=O)C2=CC=C(N)C=C2,-3.11
C-2355,3-benzoyl-1-butanoyloxymethyl-5-fluorouracil,WJZCANSESVPVMM-UHFFFAOYSA-N,CCCC(=O)OCN1C=C(F)C(=O)N(C1=O)C(=O)C2=CC=CC=C2,-3.73
C-2356,amifloxacin,RUXPNBWPIRDVTH-UHFFFAOYSA-N,CNN1C=C(C(O)=O)C(=O)C2=C1C=C(N3CCN(C)CC3)C(=C2)F,-3.73
C-2358,"6-(2,2-dimethylpropanoyloxy)-2-sulfamoylbenzothiazole",FAZPZNCEAZRGPY-UHFFFAOYSA-N,CC(C)(C)C(=O)OC1=CC2=C(C=C1)N=C(S2)[S](N)(=O)=O,-3.73
C-2359,n1-(1-sec-butyl-2-oxopyrimidin-4-yl)sulfanilamide;  1-sec-butyl-4-sulfapyrimidin-2-one,VUVSIYGODRCZRX-UHFFFAOYSA-N,CCC(C)N1C=CC(=NC1=O)N[S](=O)(=O)C2=CC=C(N)C=C2,-2.76
C-2361,"naproxen,  ester 3a",FFWGHEZSBSOVRZ-UHFFFAOYSA-N,COC1=CC2=CC=C(C=C2C=C1)C(C)C(=O)OCCOC(=O)CN3CCOCC3,-4.3
C-2362,"2,3,3',4,4',5,6-heptachlorobiphenyl",TYEDCFVCFDKSBK-UHFFFAOYSA-N,ClC1=CC=C(C=C1Cl)C2=C(Cl)C(=C(Cl)C(=C2Cl)Cl)Cl,-8.9
C-2363,"2,3,3',4',5,5',6-heptachlorobiphenyl",SSTJUBQGYXNFFP-UHFFFAOYSA-N,ClC1=CC(=C(Cl)C(=C1Cl)C2=CC(=C(Cl)C(=C2)Cl)Cl)Cl,-9.1
C-2364,mitomycin c n-propoxycarbonyl derivative,USOBOOWDKRUMNG-UHFFFAOYSA-N,CCCOC(=O)N1C2CN3C4=C(C(COC(N)=O)C3(OC)C12)C(=O)C(=C(C)C4=O)N,-3.48
C-2368,8-styrylcaffeine,OBOGEXJSNUIECN-MDZDMXLPSA-N,CN1C(=O)N(C)C2=C([N](C)C(=N2)\C=C\C3=CC=CC=C3)C1=O,-5.55
C-2373,naproxen-derivat 3f,UHSJNNFEGHBUMV-UHFFFAOYSA-N,CCC(C)C(N)C(=O)OCCCCOC(=O)C(C)C1=CC2=CC=C(OC)C=C2C=C1,-4.52
C-2376,brucine * 4 h2o,RRKTZKIUPZVBMF-UHFFFAOYSA-N,COC1=CC2=C(C=C1OC)C34CCN5CC6=CCOC7CC(=O)N2C3C7C6CC45,-2.79
C-2381,"2,3,3',4,4',5,5'-heptachlorodiphenyl  ether",JUHPMUOWCYBMEY-UHFFFAOYSA-N,ClC1=CC(=CC(=C1Cl)Cl)OC2=C(Cl)C(=C(Cl)C(=C2)Cl)Cl,-9.54
C-2383,"3,4'-ace-1,2-benzanthracene",PMNATJJZOUNELG-UHFFFAOYSA-N,C1CC2=CC3=CC4=C(C=CC=C4)C=C3C5=C2C1=CC=C5,-2.97
C-2384,sulfaproxyline,FBFBRAFXKGRRHI-UHFFFAOYSA-N,CC(C)OC1=CC=C(C=C1)C(=O)N[S](=O)(=O)C2=CC=C(N)C=C2,-4.3
C-2385,2-carboxy-7-methylthioxanthone; 7-methylthioxanthone-2-carboxylic; 7-methylsulfanyl-9-oxo-9h-xanthene-2-carboxylic acid acid,GEMHNGLORSISHO-UHFFFAOYSA-N,CSC1=CC=C2OC3=C(C=C(C=C3)C(O)=O)C(=O)C2=C1,-5.32
C-2387,lomefloxacin,ZEKZLJVOYLTDKK-UHFFFAOYSA-N,CCN1C=C(C(O)=O)C(=O)C2=C1C(=C(N3CCNC(C)C3)C(=C2)F)F,-2.33
C-2388,enrofloxacin,SPFYMRJSYKOXGV-UHFFFAOYSA-N,CCN1CCN(CC1)C2=CC3=C(C=C2F)C(=O)C(=CN3C4CC4)C(O)=O,-3.18
C-2389,"oxaprozin;  4,5-diphenyl-2-oxazolepropanoic acid",OFPXSFXSNFPTHF-UHFFFAOYSA-N,OC(=O)CCC1=NC(=C(O1)C2=CC=CC=C2)C3=CC=CC=C3,-2.24
C-2392,"acetrizoic  acid;  3-acetylamino-2,4,6-triiodobenzoic  acid",GNOGSFBXBWBTIG-UHFFFAOYSA-N,CC(=O)NC1=C(I)C=C(I)C(=C1I)C(O)=O,-2.64
C-2394,"2,2',3,4,4',5,6-heptachlorodiphenyl  ether",RPNFRXWGMTYOPA-UHFFFAOYSA-N,ClC1=CC=C(OC2=C(Cl)C(=C(Cl)C(=C2Cl)Cl)Cl)C(=C1)Cl,-9.64
C-2395,bromerguride,SBHNNNRQZGYOAU-UHFFFAOYSA-N,CCN(CC)C(=O)NC1CN(C)C2CC3=C(Br)[NH]C4=C3C(=CC=C4)C2=C1,-4.38
C-2396,"3,3-diphenylphthalide",WUBNJKMFYXGQDB-UHFFFAOYSA-N,O=C1OC(C2=CC=CC=C2)(C3=CC=CC=C3)C4=C1C=CC=C4,-3.85
C-2397,danofloxacin,QMLVECGLEOSESV-UHFFFAOYSA-N,CN1CC2CC1CN2C3=CC4=C(C=C3F)C(=O)C(=CN4C5CC5)C(O)=O,-2.9
C-2398,"3',4',5,7-tetrahydroxyflavone; luteolin",IQPNAANSBPBGFQ-UHFFFAOYSA-N,OC1=CC2=C(C(=C1)O)C(=O)C=C(O2)C3=CC(=C(O)C=C3)O,-3.61
C-2399,azapropazone; apazone,VECZDVJCSZXAPJ-UHFFFAOYSA-N,CCCC1=C(O)N2N(C1=O)C3=CC(=CC=C3N=C2N(C)C)C,-3.63
C-2400,"10-butyl-1,2-benzanthracene",NOYOIPQGXQUMJJ-UHFFFAOYSA-N,CCCCC1=CC2=C(C=C1)C=C3C=CC4=C(C=CC=C4)C3=C2,-7.52
C-2401,cefroxadine,RDMOROXKXONCAL-UHFFFAOYSA-N,COC1=C(N2C(SC1)C(NC(=O)C(N)C3=CCC=CC3)C2=O)C(O)=O,-1.89
C-2403,"1-(methylaminoacetylamino)-3-chloro-4,6-disulfamoylbenzene; n-(5-chloro-2,4-disulfamoylphenyl)-2-(methylamino)acetamide",QJRULOWVWPKJHB-UHFFFAOYSA-N,CNCC(=O)NC1=C(C=C(C(=C1)Cl)[S](N)(=O)=O)[S](N)(=O)=O,-1.27
C-2404,"9-chloro-7-methyl-1,2-benzanthracene;  9-chloro-7-methylbenz[a]anthracene",KSPYBKJPLXLJIX-UHFFFAOYSA-N,CC1=C2C=CC3=C(C=CC=C3)C2=CC4=CC=C(Cl)C=C14,-7.44
C-2405,diisopropyl  2-(4-nitrophenylsulfonyl)succinate; 3-isopropoxycarbonyl-3-(4-nitrophenylsulfonyl)propanoic acid isopropyl ester,UJXAIAIZGQQXIX-UHFFFAOYSA-N,CC(C)OC(=O)CC(C(=O)OC(C)C)[S](=O)(=O)C1=CC=C(C=C1)[N+]([O-])=O,-4.29
C-2406,fleroxacin,XBJBPGROQZJDOJ-UHFFFAOYSA-N,CN1CCN(CC1)C2=C(F)C3=C(C=C2F)C(=O)C(=CN3CCF)C(O)=O,-2.73
C-2407,s-(-)-nadifloxacin;  jinofloxacin,JYJTVFIEFKZWCJ-UHFFFAOYSA-N,CC1CCC2=C(N3CCC(O)CC3)C(=CC4=C2N1C=C(C(O)=O)C4=O)F,-3.78
C-2408,n4-acetyl-n1-(1-ethyl-2-oxopyrimidin-4-yl)sulfanilamide; 4-(n4-acetylsulfanilamido)-1-ethyl-1h-pyrimidin-2-one; n4-acetylsulfacytine,FEALZKNFXRGXNS-UHFFFAOYSA-N,CCN1C=CC(=NC1=O)N[S](=O)(=O)C2=CC=C(NC(C)=O)C=C2,-2.71
C-2409,"n4-acetylsulfaethidole; 2-(n4-acetylsulfa)-5-ethyl-1,3,4-thiadiazole",UPRXAKRITNJEII-UHFFFAOYSA-N,CCC1=NN=C(N[S](=O)(=O)C2=CC=C(NC(C)=O)C=C2)S1,-3.4
C-2411,"4-(4-bromo-2-fluorophenylamino)-1,5-dimethyl-6-oxo-1,6-dihydropyridine-3-carboxylic acid methoxyamide",FFWCBXXLTJLUOY-UHFFFAOYSA-N,CONC(=O)C1=CN(C)C(=O)C(=C1NC2=CC=C(Br)C=C2F)C,-3.28
C-2413,coroxon,FDYMERLIFOUIRZ-UHFFFAOYSA-N,CCO[P](=O)(OCC)OC1=CC2=C(C=C1)C(=C(Cl)C(=O)O2)C,-3.18
C-2422,"acyclovir ester iii,  o-[(4-dimethylaminomethyl)benzoyl]acyclovir",WNZOPNWEGQVFCY-UHFFFAOYSA-N,CN(C)CC1=CC=C(C=C1)C(=O)OCCOC[N]2C=NC3=C2N=C(N)NC3=O,-2.47
C-2423,n3-[(3-hydroxy-2-hydroxymethyl)propanoyloxymethyl]phenytoin,WTFDBEWCLSDGPA-UHFFFAOYSA-N,OCC(CO)C(=O)OCN1C(=O)NC(C1=O)(C2=CC=CC=C2)C3=CC=CC=C3,-2.21
C-2425,"ketoprofen,  ester 4c; n-methyl-n-[2-(2'-(3''-benzoyl-phenyl)propanoyloxy)acetyl]glycineamide",HJQCXQXWUDAPBT-UHFFFAOYSA-N,CC(C(=O)OCC(=O)N(C)CC(N)=O)C1=CC(=CC=C1)C(=O)C2=CC=CC=C2,-2.42
C-2426,7-pentyl-benz[a]anthracene,OPHSDBPYDDKGOA-UHFFFAOYSA-N,CCCCCC1=C2C=CC3=C(C=CC=C3)C2=CC4=C1C=CC=C4,-8.57
C-2427,"2,2',3,3',4,4',5,5'-octachlorodiphenyl  ether",IXZVOZCULZBCDY-UHFFFAOYSA-N,ClC1=CC(=C(Cl)C(=C1Cl)Cl)OC2=CC(=C(Cl)C(=C2Cl)Cl)Cl,-10.1
C-2428,"4-(4-bromo-2-fluorophenylamino)-n-ethoxy-1,5-dimethyl-6-oxo-1,6-dihydropyridine-3-carboxamide",IKVITEMYFVVJFY-UHFFFAOYSA-N,CCONC(=O)C1=CN(C)C(=O)C(=C1NC2=C(F)C=C(Br)C=C2)C,-3.82
C-2429,"5,5-diphenylhydantoin-3-methyl  octanoate",IDZYLIZKJFAXAS-UHFFFAOYSA-N,CCCCCCCC(=O)OCN1C(=O)NC(C1=O)(C2=CC=CC=C2)C3=CC=CC=C3,-6.52
C-2431,2-bromo-4-nitro-1-sulfanilamidobenzene;  2-bromo-4-nitro-1-sulfabenzene,HMKBHDBLXCCKGW-UHFFFAOYSA-N,NC1=CC=C(C=C1)[S](=O)(=O)NC2=CC=C(C=C2Br)[N+]([O-])=O,-4.78
C-2432,2-carboxy-7-methylsulfinylxanthone; 7-methylsulfinylxanthone-2-carboxylic acid; 7-methylsulfinyl-9-oxo-9h-xanthene-2-carboxylic acid,PCVFKIXSNYJABV-UHFFFAOYSA-N,C[S](=O)C1=CC=C2OC3=C(C=C(C=C3)C(O)=O)C(=O)C2=C1,-5.02
C-2434,rs-82917;  7-(4-methylthiobenzoyl)benzofuran-5-yl-acetic acid,WNYGTKAHASSKJM-UHFFFAOYSA-N,CSC1=CC=C(C=C1)C(=O)C2=CC(=CC3=C2OC=C3)CC(O)=O,-5.51
C-2435,chlorsulfuron,VJYIFXVZLXQVHO-UHFFFAOYSA-N,COC1=NC(=NC(=N1)NC(=O)N[S](=O)(=O)C2=CC=CC=C2Cl)C,-1.71
C-2436,"2-sulfamoyl-5-phenylsulfonamido-1,3,4-thiadiazole",PWDGTQXZLNDOKS-UHFFFAOYSA-N,N[S](=O)(=O)C1=NN=C(N[S](=O)(=O)C2=CC=CC=C2)S1,-2.9
C-2438,"4-(4-bromo-2-fluorophenylamino)-5-fluoro-1-methyl-6-oxo-1,6-dihydropyridine-3-carboxylic acid ethoxyamide",GSLVKBRGRSHUAU-UHFFFAOYSA-N,CCONC(=O)C1=CN(C)C(=O)C(=C1NC2=CC=C(Br)C=C2F)F,-4.19
C-2439,"1,2,3,6,7,8-hexachlorodibenzofuran",JEYJJJXOFWNEHN-UHFFFAOYSA-N,ClC1=CC2=C(C(=C1Cl)Cl)C3=C(O2)C(=C(Cl)C(=C3)Cl)Cl,-10.3
C-2442,"quercetin dihydrate; 3,5,7,3',4'-pentahydroxyflavone*2h2o; meletin; sophoretin",REFJWTPEDVJJIY-UHFFFAOYSA-N,OC1=CC2=C(C(=C1)O)C(=O)C(=C(O2)C3=CC=C(O)C(=C3)O)O,-1.99
C-2444,miconazole,BYBLEWFAAKGYCD-UHFFFAOYSA-N,ClC1=CC(=C(COC(C[N]2C=CN=C2)C3=CC=C(Cl)C=C3Cl)C=C1)Cl,-5.08
C-2445,tmppt; tetramethylpyrimidopteridinetetrone,PATBXKKMHRDFHF-UHFFFAOYSA-N,CN1C(=O)N(C)C2=C(N=C3C(=O)N(C)C(=O)N(C)C3=N2)C1=O,-3.31
C-2447,"2-sulfamoyl-5-benzylsulfonylamido-1,3,4-thiadiazole; 5-benzylsulfonylamino-1,3,4-thiadiazole-2-sulfonamide",CYPRFFCTABNEJY-UHFFFAOYSA-N,N[S](=O)(=O)C1=NN=C(N[S](=O)(=O)CC2=CC=CC=C2)S1,-2.7
C-2448,methyl alpha-(4-nitrophenylsulfonyl)cinnamate; 2-methoxycarbonyl-2-(4-nitrophenylsulfonyl)styrene,POYJJXCXXKQSST-PTNGSMBKSA-N,COC(=O)\C(=C\C1=CC=CC=C1)[S](=O)(=O)C2=CC=C(C=C2)[N+]([O-])=O,-4.57
C-2449,coumachlor  (hemiketal isomer),ARIFBMNLDCJVSE-UHFFFAOYSA-N,CC1(O)CC(C2=CC=C(Cl)C=C2)C3=C(O1)C4=C(OC3=O)C=CC=C4,-5.84
C-2450,valdecoxib,LNPDTQAFDNKSHK-UHFFFAOYSA-N,CC1=C(C2=CC=C(C=C2)[S](N)(=O)=O)C(=NO1)C3=CC=CC=C3,-4.52
C-2451,"4-(4-bromo-2-fluorophenylamino)-n-(2-hydroxyethoxy)-1,5-dimethyl-6-oxo-1,6-dihydropyridine-3-carboxamide",XHELVEVNEWRBRH-UHFFFAOYSA-N,CN1C=C(C(=O)NOCCO)C(=C(C)C1=O)NC2=C(F)C=C(Br)C=C2,-2.96
C-2452,2-sulfamoyl-6-(aminoacetamidoacetoxyethoxy)benzothiazole,WNQBATPBJYGENS-UHFFFAOYSA-N,NCC(=O)NCC(=O)OCCOC1=CC2=C(C=C1)N=C(S2)[S](N)(=O)=O,-1.3
C-2453,"2-sulfamoyl-5-(4'-tolyl)sulfonamido-1,3,4-thiadiazole; 5-(4-methylbenzenesulfonylamino)-1,3,4-thiadiazole-2-sulfonamide",FNICBGZPBTURDA-UHFFFAOYSA-N,CC1=CC=C(C=C1)[S](=O)(=O)NC2=NN=C(S2)[S](N)(=O)=O,-1.22
C-2454,bumetanide,MAEIEVLCKWDQJH-UHFFFAOYSA-N,CCCCNC1=C(OC2=CC=CC=C2)C(=CC(=C1)C(O)=O)[S](N)(=O)=O,-3.56
C-2456,sparfloxacin,DZZWHBIBMUVIIW-UHFFFAOYSA-N,CC1CN(CC(C)N1)C2=C(F)C3=C(C(=C2F)N)C(=O)C(=CN3C4CC4)C(O)=O,-3.37
C-2457,glafenine,GWOFUCIGLDBNKM-UHFFFAOYSA-N,OCC(O)COC(=O)C1=C(NC2=C3C=CC(=CC3=NC=C2)Cl)C=CC=C1,-4.54
C-2458,"5-(4-aminobenzenesulfonamido)-1,3,4-thiadiazole-2-sulfonamide",BDLSLORLEPSOGW-UHFFFAOYSA-N,NC1=CC=C(C=C1)[S](=O)(=O)NC2=NN=C(S2)[S](N)(=O)=O,-1.5
C-2460,tamoxifen,NKANXQFJJICGDU-QPLCGJKRSA-N,CCC(/C1=CC=CC=C1)=C(\C2=CC=CC=C2)C3=CC=C(OCCN(C)C)C=C3,-8.49
C-2462,"5-(3-aminobenzenesulfonamido)-1,3,4-thiadiazole-2-sulfonamide",ZAVXXOXJXNKOFP-UHFFFAOYSA-N,NC1=CC=CC(=C1)[S](=O)(=O)NC2=NN=C(S2)[S](N)(=O)=O,-1.54
C-2463,midazolam,DDLIGBOFAVUZHB-UHFFFAOYSA-N,CC1=NC=C2CN=C(C3=C(F)C=CC=C3)C4=C(C=CC(=C4)Cl)[N]12,-4.13
C-2467,prosulfalin,LKVOXDJKFRBRQV-UHFFFAOYSA-N,CCCN(CCC)C1=C(C=C(C=C1[N+]([O-])=O)[S](=O)(=O)N=[S](C)C)[N+]([O-])=O,-4.86
C-2468,"2-Amino-2-(4-aminophenyl)-N-[(2R,5S,6S)-3,3-dimethyl-7-oxo-2-(2H-tetrazol-5-yl)-4-thia-1-azabicyclo[3.2.0]hept-6-yl]acetamide",KKJLKMXROHVRMW-UHFFFAOYSA-N,CC1(C)SC2C(NC(=O)C(N)C3=CC=C(N)C=C3)C(=O)N2C1C4=NN=N[NH]4,-1.57
C-2469,"2-sulfamoyl-5-pentafluorobenzoylamido-1,3,4-thiadiazole",FQQZIMNHENDFJL-UHFFFAOYSA-N,N[S](=O)(=O)C1=NN=C(NC(=O)C2=C(F)C(=C(F)C(=C2F)F)F)S1,-1.37
C-2471,acyclovir ester vi;  acyclovir 3-(dipropylaminomethyl)benzoate,NVMBLZBSOKIKNO-UHFFFAOYSA-N,CCCN(CCC)CC1=CC=CC(=C1)C(=O)OCCOC[N]2C=NC3=C2N=C(N)NC3=O,-0.35
C-2472,"2-sulfamoyl-5-(4-chlorobenzenesulfonamido)-1,3,4-thiadiazole",AJSWHUXLZRXPJL-UHFFFAOYSA-N,N[S](=O)(=O)C1=NN=C(N[S](=O)(=O)C2=CC=C(Cl)C=C2)S1,-2.01
C-2473,n1-(4-sulfamoylbenzyl)-n3-[(1-carboxy-2-hydroxy-2-phenyl)ethyl]thiourea; 2-(4-sulfamoylbenzyl)thioureido-3-hydroxy-3-phenylpropanoic acid,GQACNASLZSJPSN-UHFFFAOYSA-N,N[S](=O)(=O)C1=CC=C(CNC(=S)NC(C(O)C2=CC=CC=C2)C(O)=O)C=C1,-1.29
C-2475,"2-sulfamoyl-4-methyl-5-benzylsulfonylimido-1,3,4-thiadiazoline; 5-benzylsulfonylimido-4-methyl-delta2-1,3,4-thiadiazoline-2-sulfonamide",CEOILGDNBOGUIQ-UHFFFAOYSA-N,CN1N=C(SC1=N[S](=O)(=O)CC2=CC=CC=C2)[S](N)(=O)=O,-2.48
C-2476,"2-sulfamoyl-5-(4'-anisyl)sulfonylamido-1,3,4-thiadiazole; 5-(4-methoxybenzenesulfonylamino)-1,3,4-thiadiazole-2-sulfonamide",DWBVNWWEQWTHLV-UHFFFAOYSA-N,COC1=CC=C(C=C1)[S](=O)(=O)NC2=NN=C(S2)[S](N)(=O)=O,-2.25
C-2478,prazosin,IENZQIKPVFGBNW-UHFFFAOYSA-N,COC1=CC2=C(C=C1OC)C(=NC(=N2)N3CCN(CC3)C(=O)C4=CC=CO4)N,-5.09
C-2480,"2-sulfamoyl-4-methyl-5-(4-tolylsulfonylimido)-1,3,4-thiadiazoline; 5-(4-methylbenzenesulfonylimido)-4-methyl-delta2-1,3,4-thiadiazoline-2-sulfonamide",JGNXJEMYLRMWGB-UHFFFAOYSA-N,CN1N=C(SC1=N[S](=O)(=O)C2=CC=C(C)C=C2)[S](N)(=O)=O,-2.84
C-2482,naproxen-derivat 3 d,MZAKIGQNEBYEKL-UHFFFAOYSA-N,COC1=CC=C2C=C(C=CC2=C1)C(C)C(=O)OCCOC(=O)C(N)CC3=CC=CC=C3,-3.75
C-2484,alpha-cyclodextrin;  alfadex,HFHDHCJBZVLPGP-UHFFFAOYSA-N,OCC1OC2OC3C(O)C(O)C(OC3CO)OC4C(O)C(O)C(OC4CO)OC5C(O)C(O)C(OC5CO)OC6C(O)C(O)C(OC6CO)OC7C(O)C(O)C(OC7CO)OC1C(O)C2O,-0.91
C-2485,n1-(1-benzyl-2-oxopyrimidin-4-yl)sulfanilamide;  1-benzyl-4-sulfapyrimidin-2-one,HLCYDXRGEPUIOB-UHFFFAOYSA-N,NC1=CC=C(C=C1)[S](=O)(=O)NC2=NC(=O)N(CC3=CC=CC=C3)C=C2,-4.8
C-2486,"5-(4-fluorobenzenesulfonylimido)-4-methyl-2-sulfonamido-delta2-1,3,4-thiadiazoline",YTIHPYNMOXPHQK-UHFFFAOYSA-N,CN1N=C(SC1=N[S](=O)(=O)C2=CC=C(F)C=C2)[S](N)(=O)=O,-2.03
C-2488,n-[(2-methylamino)acetyl]dorzolamide,AEDNMSDIHOZVTQ-UHFFFAOYSA-N,CCN(C1CC(C)[S](=O)(=O)C2=C1C=C(S2)[S](N)(=O)=O)C(=O)CNC,-1.21
C-2489,"5-(4-aminobenzenesulfonylimido)-4-methyl-delta2-1,3,4-thiadiazoline-2-sulfonamide",BKCXBMXTXLGZCV-UHFFFAOYSA-N,CN1N=C(SC1=N[S](=O)(=O)C2=CC=C(N)C=C2)[S](N)(=O)=O,-2.5
C-2490,norethindrone  biphenyl-4-carboxylate,PEZADNLTLSQNPI-UHFFFAOYSA-N,CC12CCC3C(CCC4=CC(=O)CCC34)C1CCC2(OC(=O)C5=CC=C(C=C5)C6=CC=CC=C6)C#C,-8.11
C-2491,"5-(3-aminobenzenesulfonylimido)-4-methyl-delta2-1,3,4-thiadiazoline-2-sulfonamide",KVTLULGYZIGEGB-UHFFFAOYSA-N,CN1N=C(SC1=N[S](=O)(=O)C2=CC=CC(=C2)N)[S](N)(=O)=O,-2.45
C-2492,"5-(2,4,6-trimethylbenzenesulfonamido)-1,3,4-thiadiazole-2-sulfonamide",NMYPLEDXWFOEEJ-UHFFFAOYSA-N,CC1=CC(=C(C(=C1)C)[S](=O)(=O)NC2=NN=C(S2)[S](N)(=O)=O)C,-2.7
C-2493,indapamide;  1-(3-aminosulfonyl-4-chloro)benzoylamino-2-methylindoline,NDDAHWYSQHTHNT-UHFFFAOYSA-N,CC1CC2=C(C=CC=C2)N1NC(=O)C3=CC(=C(Cl)C=C3)[S](N)(=O)=O,-3.79
C-2494,aztreonam,WZPBZJONDBGPKJ-IUXPMGMMSA-N,CC1C(NC(=O)C(=N\OC(C)(C)C(O)=O)/C2=CSC(=N2)N)C(=O)N1[S](O)(=O)=O,-1.64
C-2495,naproxen-derivat 3 i,AJWHQEKVIAEOBU-UHFFFAOYSA-N,COC1=CC=C2C=C(C=CC2=C1)C(C)C(=O)OC(C)OC(=O)C(N)CC3=CC=CC=C3,-3.5
C-2496,"2-sulfamoyl-5-(4-bromobenzenesulfonamido)-1,3,4-thiadiazole",QGHSHYIQOYQWHW-UHFFFAOYSA-N,N[S](=O)(=O)C1=NN=C(N[S](=O)(=O)C2=CC=C(Br)C=C2)S1,-2.13
C-2497,"5-(4-chlorobenzenesulfonylimido)-4-methyl-2-sulfonamido-delta2-1,3,4-thiadiazoline",SYUHFMCJTDEIBB-UHFFFAOYSA-N,CN1N=C(SC1=N[S](=O)(=O)C2=CC=C(Cl)C=C2)[S](N)(=O)=O,-2.44
C-2498,2-chloro-4-[(4-'acetylpiperazin-1'-yl)acryloyl]phenyl   benzodioxan-6''-yl  sulfide,PZJWSJORJOUILO-XVNBXDOJSA-N,CC(=O)N1CCN(CC1)C(=O)/C=C/C2=CC(=C(SC3=CC4=C(OCCO4)C=C3)C=C2)Cl,-2.05
C-2500,"4-(6,7-dimethoxyquinazolin-4-yl)piperazine-1-carbothioic acid (furan-2-ylmethyl)amide",CIWLFJDHBPQVQC-UHFFFAOYSA-N,COC1=CC2=C(C=C1OC)C(=NC=N2)N3CCN(CC3)C(=S)NCC4=CC=CO4,-5.63
C-2501,"4-(6,7-dimethoxyquinazolin-4-yl)piperazine-1-carboxylic acid thiophen-3-ylamide",SACBQFMSEKIABM-UHFFFAOYSA-N,COC1=CC2=C(C=C1OC)C(=NC=N2)N3CCN(CC3)C(=O)NC4=CSC=C4,-5.3
C-2502,n4-[2-(nicotinoylamino)pyrimidin-4-yl]sulfanilamide;  2-(nicotinoylamino)-4-(4-sulfamoylphenylamino)pyrimidine,AKFZINZSGJYCMM-UHFFFAOYSA-N,N[S](=O)(=O)C1=CC=C(NC2=NC(=NC=C2)NC(=O)C3=CC=CN=C3)C=C1,-1.27
C-2503,"amidotrizoic  acid;  diatrizoic acid;  3,5-diacetamido-2,4,6-triiodobenzoic acid",YVPYQUNUQOZFHG-UHFFFAOYSA-N,CC(=O)NC1=C(I)C(=C(I)C(=C1I)C(O)=O)NC(C)=O,-2.01