ID,Name,InChIKey,SMILES,Solubility
A-1350,"4-[(E)-2-phenyldiazen-1-yl]benzene-1,3-diamine",IWRVPXDHSLTIOC-UHFFFAOYSA-N,Nc1ccc(N=Nc2ccccc2)c(N)c1,-2.9976655605
A-1351,2-tert-Butyl-4-methoxyphenol,MRBKEAMVRSLQPH-UHFFFAOYSA-N,COc1ccc(O)c(c1)C(C)(C)C,-2.9274884417
A-1352,4-piperidin-4-ylmorpholine,YYBXNWIRMJXEQJ-UHFFFAOYSA-N,C1CC(CCN1)N2CCOCC2,-2.9027228224
A-1354,triethoxy(2-methylpropyl)silane,ALVYUZIFSCKIFP-UHFFFAOYSA-N,CCO[Si](CC(C)C)(OCC)OCC,-3.016846171
A-1355,"3,4-dihydroxy-5-nitrobenzaldehyde",BBFJODMCHICIAA-UHFFFAOYSA-N,Oc1cc(C=O)cc(c1O)[N+]([O-])=O,-1.937833911
A-1357,ethyl 2-methyl-2-phenylpropanoate,OFYSAFPKXXTYLU-UHFFFAOYSA-N,CCOC(=O)C(C)(C)c1ccccc1,-3.045838317
A-1360,4-methyl-2-nitroaniline,DLURHXYXQYMPLT-UHFFFAOYSA-N,Cc1ccc(N)c(c1)[N+]([O-])=O,-1.860061225
A-1361,dithioxomethane,QGJOPFRUJISHPQ-UHFFFAOYSA-N,S=C=S,-1.5594220963
A-1362,methyl benzoate,QPJVMBTYPHYUOC-UHFFFAOYSA-N,COC(=O)c1ccccc1,-1.8117983509
A-1363,"1,1-dimethoxyoctane",BZOOCKAFKVYAOZ-UHFFFAOYSA-N,CCCCCCCC(OC)OC,-2.9180054187
A-1364,"1,4,7,10-tetrazacyclododecane",QBPPRVHXOZRESW-UHFFFAOYSA-N,C1CNCCNCCNCCN1,-0.0310204156
A-1366,undec-10-enal,OFHHDSQXFXLTKC-UHFFFAOYSA-N,C=CCCCCCCCCC=O,-3.8931862
A-1367,"1-methyl 1,2,2,6,6-pentamethylpiperidin-4-yl decanedioate bis(1,2,2,6,6-pentamethylpiperidin-4-yl) decanedioate",YHEPZZFDBQOSSN-UHFFFAOYSA-N,COC(=O)CCCCCCCCC(=O)OC1CC(C)(C)N(C)C(C)(C)C1.CN2C(C)(C)CC(CC2(C)C)OC(=O)CCCCCCCCC(=O)OC3CC(C)(C)N(C)C(C)(C)C3,-4.6112212345
A-1370,2-[4-(2-methylpropyl)phenyl]propanoic acid,HEFNNWSXXWATRW-UHFFFAOYSA-N,CC(C)Cc1ccc(cc1)C(C)C(O)=O,-3.9922483547
A-1371,sodium perchlorate,BAZAXWOYCMUHIX-UHFFFAOYSA-M,[Na+].[O-][Cl](=O)(=O)=O,-1.7665284956
A-1376,"N-ethyl-N'-isopropyl-6-(methylsulfanyl)-1,3,5-triazine-2,4-diamine",RQVYBGPQFYCBGX-UHFFFAOYSA-N,CCNc1nc(NC(C)C)nc(SC)n1,-3.0470399572
A-1377,1-(3-methoxyphenyl)ethan-1-one,BAYUSCHCCGXLAY-UHFFFAOYSA-N,COc1cccc(c1)C(C)=O,-1.8691073865
A-1381,1H-benzimidazole,HYZJCKYKOHLVJF-UHFFFAOYSA-N,[nH]1cnc2ccccc12,-1.769197233
A-1382,cyanuric acid,ZFSLODLOARCGLH-UHFFFAOYSA-N,O=C1NC(=O)NC(=O)N1,-1.8076460763
A-1383,"1-(3-chloropropyl)-2,3-dihydro-1H-1,3-benzodiazol-2-one",GUMPYDGUYXOYML-UHFFFAOYSA-N,ClCCCN1C(=O)Nc2ccccc12,-3.0203942687
A-1385,2-chloropyridine,OKDGRDCXVWSXDC-UHFFFAOYSA-N,Clc1ccccn1,-0.7541456686
A-1387,"2,5-dichlorophenol",RANCECPPZPIPNO-UHFFFAOYSA-N,Oc1cc(Cl)ccc1Cl,-1.9111656018
A-1388,dicopper(2+) ion disodium 2-[(E)-2-(2-oxido-5-sulfamoylphenyl)diazen-1-yl]-6-({5-oxido-6-[(E)-2-(2-oxido-5-sulfamoylphenyl)diazen-1-yl]-7-sulfonatonaphthalen-2-yl}amino)-3-sulfonatonaphthalen-1-olate,OHHRMPATRJSFJN-UHFFFAOYSA-H,[Na+].[Na+].[Cu++].[Cu++].N[S](=O)(=O)c1ccc([O-])c(c1)N=Nc2c([O-])c3ccc(Nc4ccc5c([O-])c(N=Nc6cc(ccc6[O-])[S](N)(=O)=O)c(cc5c4)[S]([O-])(=O)=O)cc3cc2[S]([O-])(=O)=O,-2.7104892768
A-1390,"1,10-bis(2-ethylhexyl) decanedioate",VJHINFRRDQUWOJ-UHFFFAOYSA-N,CCCCC(CC)COC(=O)CCCCCCCCC(=O)OCC(CC)CCCC,-3.3290743264
A-1391,4-amino-5-chloro-N-[2-(diethylamino)ethyl]-2-methoxybenzamide,RVFUNJWWXKCWNS-UHFFFAOYSA-N,[H+].[Cl-].CCN(CC)CCNC(=O)c1cc(Cl)c(N)cc1OC,-3.2256490876
A-1392,arsine,WLQSSCFYCXIQDZ-UHFFFAOYSA-N,[As],-2.5735793664
A-1397,Spironolactone intermediate,UWBICEKKOYXZRG-WNHSNXHDSA-N,C[C@]12CCC(=O)C=C1CC[C@@H]3[C@@H]2CC[C@@]4(C)[C@H]3CC[C@@]45CCC(=O)O5,-4.2250037793
A-1399,"2,2-bis({[(2-methylprop-2-enoyl)oxy]methyl})butyl 2-methylprop-2-enoate",OKKRPWIIYQTPQF-UHFFFAOYSA-N,CCC(COC(=O)C(C)=C)(COC(=O)C(C)=C)COC(=O)C(C)=C,-4.2262342969
A-1400,3-methyl-4-propan-2-ylphenol,IJALWSVNUBBQRA-UHFFFAOYSA-N,CC(C)c1ccc(O)cc1C,-2.854511354
A-1401,1-Isopropyl-2-methoxy-4-methylcyclohexane,JDGJLPHFRJNJMN-UHFFFAOYSA-N,COC1CC(C)CCC1C(C)C,-3.9301744515
A-1402,"disodium [2,7-dibromo-9-(2-carboxylatophenyl)-6-oxido-3-oxo-3H-xanthen-5-yl]mercurol",QLVIXIXZJAKNOS-UHFFFAOYSA-L,[Na+].[Na+].[O-]C(=O)c1ccccc1C2=C3C=C(Br)C(=O)C=C3Oc4c2cc(Br)c([O-])c4C5=CC=C[Hg]5,-4.5936830655
A-1404,"3,7,7-trimethylbicyclo[4.1.0]hept-3-ene",BQOFWKZOCNGFEC-UHFFFAOYSA-N,CC1=CCC2C(C1)C2(C)C,-4.6704052705
A-1405,(4Z)-cyclopentadec-4-en-1-one,JIYIHILAGIZIMD-CLFYSBASSA-N,O=C1CCCCCCCCCC\C=C/CC1,-4.8831871131
A-1406,oxozinc,XLOMVQKBTHCTTD-UHFFFAOYSA-N,O=[Zn],-4.4481677146
A-1407,ditolyl ether,CYXMOAZSOPXQOD-UHFFFAOYSA-N,Cc1ccccc1Oc2ccccc2C,-4.8439277143
A-1409,1-(propan-2-yl)naphthalene; 2-(propan-2-yl)naphthalene,PMPBFICDXLLSRM-UHFFFAOYSA-N,CC(C)c1cccc2ccccc12,-4.7823935551
A-1410,2-(dimethylamino)-2-[(4-methylphenyl)methyl]-1-[4-(morpholin-4-yl)phenyl]butan-1-one,PUBNJSZGANKUGX-UHFFFAOYSA-N,CCC(Cc1ccc(C)cc1)(N(C)C)C(=O)c2ccc(cc2)N3CCOCC3,-5.1332331523
A-1411,4-methoxy-3-nitro-N-phenylbenzamide,YKOCPBMVMBUTAX-UHFFFAOYSA-N,COc1ccc(cc1[N+]([O-])=O)C(=O)Nc2ccccc2,-4.9878258088
A-1414,oxostibanyl stibinate,GHPGOEFPKIHBNM-UHFFFAOYSA-N,[O--].[O--].[O--].[Sb+3].[Sb+3],-5.0237548039
A-1415,"1,3,5-triazinane-2,4,6-trione; 1,3,5-triazine-2,4,6-triamine",ZQKXQUJXLSSJCH-UHFFFAOYSA-N,Nc1nc(N)nc(N)n1.O=C2NC(=O)NC(=O)N2,-4.9755135023
A-1417,trizinc(2+) ion diphosphate,LRXTYHSAJDENHV-UHFFFAOYSA-H,[Zn++].[Zn++].[Zn++].[O-][P]([O-])([O-])=O.[O-][P]([O-])([O-])=O,-5.1553472856
A-1418,1-(4-chlorophenyl)-2-nitrobenzene,OMNWKPZIFZJANV-UHFFFAOYSA-N,[O-][N+](=O)c1ccccc1c2ccc(Cl)cc2,-4.9372094561
A-1420,"1-(2,3,8,8-tetramethyl-1,3,4,5,6,7-hexahydronaphthalen-2-yl)ethanone",FVUGZKDGWGKCFE-UHFFFAOYSA-N,CC1CC2=C(CC1(C)C(C)=O)C(C)(C)CCC2,-4.9417913147
A-1421,Molybdenum 2-ethylhexanoate,VXIWJTFRRIZCQJ-UHFFFAOYSA-M,[Mo].CCCCC(CC)C([O-])=O,-3.4351686053
A-1422,"5-chloro-2-(2,4-dichlorophenoxy)aniline",SOOLDKUMSVNBIW-UHFFFAOYSA-N,Nc1cc(Cl)ccc1Oc2ccc(Cl)cc2Cl,-5.0452642864
A-1423,dihexyl adipate,HHECSPXBQJHZAF-UHFFFAOYSA-N,CCCCCCOC(=O)CCCCC(=O)OCCCCCC,-5.0826003485
A-1425,2-ethylhexyl 2-{[dibutyl({2-[(2-ethylhexyl)oxy]-2-oxoethyl}sulfanyl)stannyl]sulfanyl}acetate,PRIUALOJYOZZOJ-UHFFFAOYSA-L,CCCCC(CC)COC(=O)CS[Sn](CCCC)(CCCC)SCC(=O)OCC(CC)CCCC,-5.3942867121
A-1428,strontium 4-[(5-chloro-4-methyl-2-sulphonatophenyl)azo]-3-hydroxy-2-naphthoate (1:1),FTMYMYGLEZHQOM-UHFFFAOYSA-L,[Sr++].Cc1c(Cl)cc(cc1[S](O)(=O)=O)N=Nc2c([O-])c(cc3ccccc23)C([O-])=O,-5.3065828462
A-1429,"2-(3,8-dimethyl-1,2,3,4,5,6,7,8-octahydroazulen-5-yl)propan-2-yl acetate",DRFSOBZVMGLICQ-UHFFFAOYSA-N,CC1CCC(CC2=C1CCC2C)C(C)(C)OC(C)=O,-5.0226025122
A-1431,11-ethyl-5-methylpentadecanoic acid,DYGIZCLLGGJWQJ-UHFFFAOYSA-N,CCCCC(CC)CCCCCC(C)CCCC(O)=O,-5.0561178371
A-1432,"3,7,11-trimethyldodec-1-yn-3-ol",OWRXWSVBJIIORE-UHFFFAOYSA-N,CC(C)CCCC(C)CCCC(C)(O)C#C,-4.953059619
A-1433,gadolinium,UIWYJDYFSGRHKR-UHFFFAOYSA-N,[Gd],-4.7986506454
A-1436,"1,1,2-trifluoro-2-(pentafluoroethoxy)ethene",GWTYBAOENKSFAY-UHFFFAOYSA-N,FC(F)=C(F)OC(F)(F)C(F)(F)F,-4.9542967929
A-1440,"2,4,4-trimethylpent-1-ene",FXNDIJDIPNCZQJ-UHFFFAOYSA-N,CC(=C)CC(C)(C)C,-4.688326948
A-1444,"N-phenylaniline; 2,4,4-trimethylpent-1-ene",NRBLRTXFXBXILY-UHFFFAOYSA-N,CC(=C)CC(C)(C)C.N(c1ccccc1)c2ccccc2,-5.0876626154
A-1445,aluminium(3+) ion magnesium(2+) ion sodium tris(oxosilanebis(olate)),RILYHWBPLWVCBV-UHFFFAOYSA-N,[Na+].[Mg++].[Al+3].[O-][Si]([O-])=O.[O-][Si]([O-])=O.[O-][Si]([O-])=O,-5.1305146868
A-1447,"2,5-bis(tert-butylperoxy)-2,5-dimethylhex-3-yne",ODBCKCWTWALFKM-UHFFFAOYSA-N,CC(C)(C)OOC(C)(C)C#CC(C)(C)OOC(C)(C)C,-5.1145685291
A-1448,2-butyloctanoic acid,OARDBPIZDHVTCK-UHFFFAOYSA-N,CCCCCCC(CCCC)C(O)=O,-4.9593059667
A-1449,2-ethylhexyl 4-aminobenzoate,ZJQXUTDROPGVLH-UHFFFAOYSA-N,CCCCC(CC)COC(=O)c1ccc(N)cc1,-5.0543936585
A-1450,calcium bis(12-hydroxyoctadecanoate),RXPKHKBYUIHIGL-UHFFFAOYSA-L,[Ca++].CCCCCCC(O)CCCCCCCCCCC([O-])=O.CCCCCCC(O)CCCCCCCCCCC([O-])=O,-5.463097207
A-1451,calcium dioctadecanoate,CJZGTCYPCWQAJB-UHFFFAOYSA-L,[Ca++].CCCCCCCCCCCCCCCCCC([O-])=O.CCCCCCCCCCCCCCCCCC([O-])=O,-5.440787474
A-1452,"butyl 4,4-bis(tert-butylperoxy)pentanoate",BXIQXYOPGBXIEM-UHFFFAOYSA-N,CCCCOC(=O)CCC(C)(OOC(C)(C)C)OOC(C)(C)C,-5.1898813447
A-1453,"2,3-dichloro-1,4-naphthoquinone",SVPKNMBRVBMTLB-UHFFFAOYSA-N,ClC1=C(Cl)C(=O)c2ccccc2C1=O,-5.023776406
A-1455,"1,3,3-trimethyl-2-oxabicyclo[2.2.2]octane; 1,7,7-trimethylbicyclo[2.2.1]heptan-2-one; 2,2-dimethyl-3-methylidenebicyclo[2.2.1]heptane; 2,6,6-trimethylbicyclo[3.1.1]hept-2-ene",SMPQTZLALIOWBF-UHFFFAOYSA-N,CC1=CCC2CC1C2(C)C.CC3(C)OC4(C)CCC3CC4.CC5(C)C6CCC(C6)C5=C.CC7(C)C8CCC7(C)C(=O)C8,-5.4383706051
A-1456,3-hydroxy-N-(2-methoxyphenyl)naphthalene-2-carboxamide,OXXQDUUQLWQUEX-UHFFFAOYSA-M,[Na+].COc1ccccc1NC(=O)c2cc3ccccc3cc2[O-],-5.1765101856
A-1457,oxocadmium,CXKCTMHTOKXKQT-UHFFFAOYSA-N,O=[Cd],-4.7863829333
A-1461,1-chloro-2-(trichloromethyl)benzene,MFHPYLFZSCSNST-UHFFFAOYSA-N,Clc1ccccc1C(Cl)(Cl)Cl,-5.0439330965
A-1462,decyl acetate,NUPSHWCALHZGOV-UHFFFAOYSA-N,CCCCCCCCCCOC(C)=O,-4.9857583021
A-1464,2-{methyl[(nonafluorobutyl)sulfonyl]amino}ethyl acrylate,KEMCLRGAIUJRAN-UHFFFAOYSA-N,CN(CCOC(=O)C=C)[S](=O)(=O)C(F)(F)C(F)(F)C(F)(F)C(F)(F)F,-5.3087460931
A-1466,2-phenylhexanenitrile,OTERUZJEJFMEEB-UHFFFAOYSA-N,CCCCC(C#N)c1ccccc1,-3.6623544532
A-1467,"1,1,1-TRICHLORO-2,2,2-TRIFLUOROETHANE",BOSAWIQFTJIYIS-UHFFFAOYSA-N,FC(F)(F)C(Cl)(Cl)Cl,-4.3331923932
A-1468,2-methyldodecan-1-ol,XUJLWPFSUCHPQL-UHFFFAOYSA-N,CC(C)CCCCCCCCCCO,-5.0007940326
A-1470,N-(2-ethoxyphenyl)-3-hydroxynaphthalene-2-carboxamide,NXIGDUAONGBUKR-UHFFFAOYSA-N,CCOc1ccccc1NC(=O)c2cc3ccccc3cc2O,-5.1866018088
A-1472,calcium oxozirconium,HBHGRMNRZXKQAU-UHFFFAOYSA-N,[CaH2].O=[Zr],-4.8730792601
A-1473,diisopropyl sebacate,XFKBBSZEQRFVSL-UHFFFAOYSA-N,CC(C)OC(=O)CCCCCCCCC(=O)OC(C)C,-5.1559612143
A-1474,hexyl 2-hydroxybenzoate,DUKPKQFHJQGTGU-UHFFFAOYSA-N,CCCCCCOC(=O)c1ccccc1O,-5.0458782076
A-1475,"octadecane-1,12-diol",KHLCTMQBMINUNT-UHFFFAOYSA-N,CCCCCCC(O)CCCCCCCCCCCO,-5.1560946306
A-1476,"tetrachlorocyclohexa-2,5-diene-1,4-dione",UGNWTBMOAKPKBL-UHFFFAOYSA-N,ClC1=C(Cl)C(=O)C(=C(Cl)C1=O)Cl,-5.0896861436
A-1478,potassium hexadecyl hydrogen phosphate,RMGVATURDVPNOZ-UHFFFAOYSA-M,[K+].CCCCCCCCCCCCCCCCO[P](O)([O-])=O,-3.2602593536
A-1479,4-[(2-chloroethyl)(ethyl)amino]benzaldehyde,MFUFJCIFNHFEDW-UHFFFAOYSA-N,CCN(CCCl)c1ccc(C=O)cc1,-3.0334483747
A-1481,3-methylbutyl propanoate,XAOGXQMKWQFZEM-UHFFFAOYSA-N,CCC(=O)OCCC(C)C,-2.870073641
A-1482,"(2E)-1-(2,6,6-trimethylcyclohex-1-en-1-yl)but-2-en-1-one",GFJIQNADMLPFOW-VNHYZAJKSA-N,CC(=C)[C@@H]1C[C@@H](CC[C@@]1(C)C=C)C(C)(C)O,-3.0592783722
A-1483,chromium(3+) ion hydrogen 3-[(2-ethylhexyl)oxy]propan-1-amine (Z)-2-[2-(5-nitro-2-oxido-3-sulfonatophenyl)hydrazin-1-ylidene]-3-oxo-N-phenylbutcarboximidate hydroxide,OBGJRNHPDJSGBR-UHFFFAOYSA-K,[OH-].[Cr+3].CCCCC(CC)COCCCN.CC(=O)\C(=N/Nc1cc(cc(c1[O-])[S]([O-])(=O)=O)[N+]([O-])=O)C(=O)[N-]c2ccccc2.[H+],-3.5425873869
A-1484,oct-1-en-3-ol,VSMOENVRRABVKN-UHFFFAOYSA-N,CCCCCC(O)C=C,-1.8219317146
A-1485,hexafluoroprop-1-ene,HCDGVLDPFQMKDK-UHFFFAOYSA-N,FC(F)=C(F)C(F)(F)F,-2.8887982833
A-1488,"(8R,9S,13S,14S,17S)-13-ethyl-3-methoxy-6,7,8,9,11,12,14,15,16,17-decahydrocyclopenta[a]phenanthren-17-ol",CNPGMVAEOUQDBN-SLHNCBLASA-N,CC[C@]12CC[C@H]3[C@@H](CCc4cc(OC)ccc34)[C@@H]1CC[C@@H]2O,-4.875700653
A-1489,4-[2-(4-hydroxycyclohexyl)propan-2-yl]cyclohexan-1-ol,CDBAMNGURPMUTG-UHFFFAOYSA-N,CC(C)(C1CCC(O)CC1)C2CCC(O)CC2,-3.0976097488
A-1490,"9-[2-(2-methoxyethoxy)ethoxy]-9-[3-(oxiran-2-ylmethoxy)propyl]-2,5,8,10,13,16-hexaoxa-9-silaheptadecane",BAPRPWHVXHPSHD-UHFFFAOYSA-N,COCCOCCO[Si](CCCOCC1CO1)(OCCOCCOC)OCCOCCOC,1.5823133383
A-1494,disodium 6-hydroxy-5-[(E)-2-(4-sulfonatophenyl)diazen-1-yl]naphthalene-2-sulfonate,TXVRKNUZLYFDTJ-DDVLFWKVSA-L,[Na+].[Na+].[O-][S](=O)(=O)c1ccc(N\N=C2\C(=O)C=Cc3cc(ccc23)[S]([O-])(=O)=O)cc1,-1.3767469152
A-1495,"1-chloro-1,1-difluoroethane",BHNZEZWIUMJCGF-UHFFFAOYSA-N,CC(F)(F)Cl,-1.7233908536
A-1496,3-(methoxycarbonyl)-5-nitrobenzoic acid,ZCRNIIJXDRYWDU-UHFFFAOYSA-N,COC(=O)c1cc(cc(c1)[N+]([O-])=O)C(O)=O,-2.0737299237
A-1497,difluoromethane,RWRIWBAIICGTTQ-UHFFFAOYSA-N,FCF,-1.437441792
A-1498,2-[(1Z)-({2-[(E)-[(2-hydroxyphenyl)methylidene]amino]propyl}imino)methyl]phenol,OWGJODGIHAHWQP-GFCQZRJLSA-N,CC(CN\C=C/1C=CC=CC1=O)N\C=C/2C=CC=CC2=O,-3.172023424
A-1499,"magnesium(2+) ion bis(2,3-dinonylnaphthalene-1-sulfonate)",QGEKBXUETMOETP-UHFFFAOYSA-L,[Mg++].CCCCCCCCCc1cc2ccccc2c(c1CCCCCCCCC)[S]([O-])(=O)=O.CCCCCCCCCc3cc4ccccc4c(c3CCCCCCCCC)[S]([O-])(=O)=O,-4.6744729174
A-1501,4-[4-(propan-2-yloxy)benzenesulfonyl]phenol,ZTILAOCGFRDHBH-UHFFFAOYSA-N,CC(C)Oc1ccc(cc1)[S](=O)(=O)c2ccc(O)cc2,-4.1714457851
A-1503,tetramethylsilane,CZDYPVPMEAXLPK-UHFFFAOYSA-N,C[Si](C)(C)C,-3.6533405182
A-1505,"2,2'-(2,5-dichloro-1,4-phenylene)bis(1H-anthra[1,2-d]imidazole-6,11-dione)",MLQFPPIUTFMVLZ-UHFFFAOYSA-N,Clc1cc(c(Cl)cc1c2[nH]c3ccc4C(=O)c5ccccc5C(=O)c4c3n2)c6[nH]c7ccc8C(=O)c9ccccc9C(=O)c8c7n6,-4.5247759411
A-1506,"3,5,5-trimethylhexyl acetate",DGKXDLCVQSQVBC-UHFFFAOYSA-N,CC(CCOC(C)=O)CC(C)(C)C,-3.9891678317
A-1508,"benzene-1,4-dicarbonyl dichloride",LXEJRKJRKIFVNY-UHFFFAOYSA-N,ClC(=O)c1ccc(cc1)C(Cl)=O,-4.0287937791
A-1509,oxolan-2-ylmethyl 2-methylprop-2-enoate,LCXXNKZQVOXMEH-UHFFFAOYSA-N,CC(=C)C(=O)OCC1CCCO1,-0.9524550039
A-1510,"estr-4-ene-3,17-dione",JRIZOGLBRPZBLQ-QXUSFIETSA-N,C[C@]12CC[C@H]3[C@@H](CCC4=CC(=O)CC[C@H]34)[C@@H]1CCC2=O,-3.1565006621
A-1511,benzyl 2-methylprop-2-enoate,AOJOEFVRHOZDFN-UHFFFAOYSA-N,CC(=C)C(=O)OCc1ccccc1,-2.9682045412
A-1513,diethyl carbonate,OIFBSDVPJOWBCH-UHFFFAOYSA-N,CCOC(=O)OCC,-0.7982097075
A-1515,"(2E)-1-(2,6,6-trimethylcyclohexa-1,3-dien-1-yl)but-2-en-1-one",POIARNZEYGURDG-FNORWQNLSA-N,C/C=C/C(=O)C1=C(C)C=CCC1(C)C,-3.0052489876
A-1516,"2,4-dichloro-1-nitrobenzene",QUIMTLZDMCNYGY-UHFFFAOYSA-N,[O-][N+](=O)c1ccc(Cl)cc1Cl,-3.0091456414
A-1517,(5S)-2-methyl-5-(prop-1-en-2-yl)cyclohex-2-en-1-one,ULDHMXUKGWMISQ-VIFPVBQESA-N,CC(=C)[C@H]1CC=C(C)C(=O)C1,-1.9026536597
A-1518,octylphosphonic acid,NJGCRMAPOWGWMW-UHFFFAOYSA-N,CCCCCCCC[P](O)(O)=O,-3.0148095518
A-1519,calcium dimagnesium(2+) ion tetrahydroxide oxidandiide,MYKMKUGZFQKMOZ-HYNIEHHYSA-N,C[C@]12CCC(=O)C=C1CC[C@@H]3[C@@H]2CC[C@@]4(C)[C@H]3C(O)CC4=O,-2.2130969417
A-1520,"4-chloro-2,5-dimethoxyaniline",YGUFQYGSBVXPMC-UHFFFAOYSA-N,COc1cc(Cl)c(OC)cc1N,-3.0061212915
A-1521,plumbane,WABPQHHGFIMREM-UHFFFAOYSA-N,[Pb],-3.0492180227
A-1523,3-methylbutyl butanoate,PQLMXFQTAMDXIZ-UHFFFAOYSA-N,CCCC(=O)OCCC(C)C,-2.9328521233
A-1524,3-(cyclohexylamino)propane-1-sulfonic acid,PJWWRFATQTVXHA-UHFFFAOYSA-N,O[S](=O)(=O)CCCNC1CCCCC1,-3.0802067631
A-1528,(2E)-2-(phenylmethylidene)heptanal,HMKKIXGYKWDQSV-KAMYIIQDSA-N,CCCCC/C(C=O)=C/c1ccccc1,-3.0466584175
A-1532,1-bromo-3-chloropropane,MFESCIUQSIBMSM-UHFFFAOYSA-N,ClCCCBr,-1.9401514115
A-1533,"2,2,2-trichloroethane-1,1-diol",RNFNDJAIBTYOQL-UHFFFAOYSA-N,OC(O)C(Cl)(Cl)Cl,1.0371672978
A-1534,"disodium (5E)-5-[2-(2-methoxy-5-methyl-4-sulfonatophenyl)hydrazin-1-ylidene]-6-oxo-5,6-dihydronaphthalene-2-sulfonate",POXPUHKJGLHZEM-VIPPSAFOSA-L,[Na+].[Na+].COc1cc(c(C)cc1N\N=C2\C(=O)C=Cc3cc(ccc23)[S]([O-])(=O)=O)[S]([O-])(=O)=O,-0.4405855136
A-1538,5-hydroxyisophthalic acid,QNVNLUSHGRBCLO-UHFFFAOYSA-N,OC(=O)c1cc(O)cc(c1)C(O)=O,-2.005111367
A-1539,"disodium 2,2'-ethene-1,2-diylbis{5-[(4-anilino-6-morpholin-4-yl-1,3,5-triazin-2-yl)amino]benzenesulfonate}",VUJGKADZTYCLIL-YHPRVSEPSA-L,[Na+].[Na+].[O-][S](=O)(=O)c1cc(Nc2nc(Nc3ccccc3)nc(n2)N4CCOCC4)ccc1/C=C/c5ccc(Nc6nc(Nc7ccccc7)nc(n6)N8CCOCC8)cc5[S]([O-])(=O)=O,-2.710838239
A-1540,"1,6-bis(propan-2-yl) hexanedioate",ZDQWESQEGGJUCH-UHFFFAOYSA-N,CC(C)OC(=O)CCCCC(=O)OC(C)C,-3.1070289759
A-1541,"2,2,5-trimethyl-5-pentylcyclopentanone",PUKWIVZFEZFVAT-UHFFFAOYSA-N,CCCCCC1(C)CCC(C)(C)C1=O,-4.0165337106
A-1542,cyclododecanol,SFVWPXMPRCIVOK-UHFFFAOYSA-N,OC1CCCCCCCCCCC1,-3.9891177261
A-1543,"3,3,4,4,5,5,6,6,7,7,8,8,8-tridecafluorooctan-1-ol",GRJRKPMIRMSBNK-UHFFFAOYSA-N,OCCC(F)(F)C(F)(F)C(F)(F)C(F)(F)C(F)(F)C(F)(F)F,-4.2870640225
A-1544,"bis(2,2,6,6-tetramethylpiperidin-4-yl) decanedioate",RWMYPXKVMUFMKS-UHFFFAOYSA-N,CC1(C)CNCC(C)(C)C1OC(=O)CCCCCCCCC(=O)OC2C(C)(C)CNCC2(C)C,-4.4077469895
A-1545,"1,1,5-trimethylhept-6-en-1-yl acetate",BEARMGATPGLSKG-UHFFFAOYSA-N,CC(CCCC(C)(C)OC(C)=O)C=C,-4.0301641261
A-1547,"1,2-bis(2-methylpropyl) cyclohexane-1,2-dicarboxylate",QUKHPBOCBWDYMW-UHFFFAOYSA-N,CC(C)COC(=O)C1CCCCC1C(=O)OCC(C)C,-4.1912351395
A-1549,"3,3,5-trimethylcyclohexyl prop-2-enoate",ZMTBGVBNTHTBEC-UHFFFAOYSA-N,CC1CC(CC(C)(C)C1)OC(=O)C=C,-4.0304470853
A-1550,cyclohexyl(phenyl)methanone,BMFYCFSWWDXEPB-UHFFFAOYSA-N,O=C(C1CCCCC1)c2ccccc2,-4.0147097346
A-1553,"tris(1,3-dichloropropan-2-yl) phosphate",ASLWPAWFJZFCKF-UHFFFAOYSA-N,ClCC(CCl)O[P](=O)(OC(CCl)CCl)OC(CCl)CCl,-4.3767049743
A-1554,"1,2,3-trichlorobenzene",RELMFMZEBKVZJC-UHFFFAOYSA-N,Clc1cccc(Cl)c1Cl,-4.003482074
A-1555,calcium bis(3-nitro-4-{[2-oxo-1-(phenylcarbamoyl)propyl]diazenyl}benzenesulfonate),VWDVUHHOWAILLC-UHFFFAOYSA-L,[Ca++].CC(=O)C(N=Nc1ccc(cc1[N+]([O-])=O)[S]([O-])(=O)=O)C(=O)Nc2ccccc2.CC(=O)C(N=Nc3ccc(cc3[N+]([O-])=O)[S]([O-])(=O)=O)C(=O)Nc4ccccc4,-4.6745621224
A-1556,"methyl 2,4-dihydroxy-3,6-dimethylbenzoate",UUQHKWMIDYRWHH-UHFFFAOYSA-N,COC(=O)c1c(C)cc(O)c(C)c1O,-4.037430925
A-1558,sodium iodide,FVAUCKIRQBBSSJ-UHFFFAOYSA-M,[Na+].[I-],1.0777960404
A-1559,4-(4-amino-3-chlorophenyl)-2-chloroaniline dihydrochloride,BXAONUZFBUNTQR-UHFFFAOYSA-N,[H+].[H+].[Cl-].[Cl-].Nc1ccc(cc1Cl)c2ccc(N)c(Cl)c2,-3.2628695302
A-1562,4-methyl-1-(propan-2-yl)cyclohex-3-en-1-ol,WRYLYDPHFGVWKC-UHFFFAOYSA-N,CC(C)C1(O)CCC(=CC1)C,-1.9409970697
A-1563,"1-(chloromethyl)-4-fluoro-1,4-diazabicyclo[2.2.2]octane-1,4-diium; bis(tetrafluoroboranuide)",TXRPHPUGYLSHCX-UHFFFAOYSA-N,F[B-](F)(F)F.F[B-](F)(F)F.F[N+]12CC[N+](CCl)(CC1)CC2,-0.3038119023
A-1564,"1,4-dimethoxy-2-nitrobenzene",UPTOWXNJLZJTGD-UHFFFAOYSA-N,COc1ccc(OC)c(c1)[N+]([O-])=O,-3.0173250803
A-1565,3-iodoprop-2-yn-1-yl N-butylcarbamate,WYVVKGNFXHOCQV-UHFFFAOYSA-N,CCCCNC(=O)OCC#CI,-3.2033373628
A-1569,"5-nitro-2,3-dihydro-1H-1,2,4-triazol-3-one",QJTIRVUEVSKJTK-UHFFFAOYSA-N,[O-][N+](=O)C1=NC(=O)NN1,-0.8786253202
A-1570,"5-amino-6-methyl-2,3-dihydro-1H-1,3-benzodiazol-2-one",ZCXIPVIGYBHUTQ-UHFFFAOYSA-N,Cc1cc2NC(=O)Nc2cc1N,-1.9771384819
A-1576,2-(tert-butylperoxy)-2-methylpropane,LSXWFXONGKSEMY-UHFFFAOYSA-N,CC(C)(C)OOC(C)(C)C,-2.9320403696
A-1577,ethyl 3-phenylacrylate,KBEBGUQPQBELIU-CMDGGOBGSA-N,CCOC(=O)\C=C\c1ccccc1,-3.0130467638
A-1578,"sodium 2-[(4-hydroxy-9,10-dioxo-9,10-dihydroanthracen-1-yl)amino]-5-methylbenzene-1-sulfonate",GTKIEPUIFBBXJQ-UHFFFAOYSA-M,[Na+].Cc1ccc(Nc2ccc(O)c3C(=O)c4ccccc4C(=O)c23)c(c1)[S]([O-])(=O)=O,-2.4023932811
A-1579,"2,3-dihydro-1,2-benzothiazol-3-one",DMSMPAJRVJJAGA-UHFFFAOYSA-N,O=C1NSc2ccccc12,-1.9472895459
A-1585,2-methyl-1-[4-(methylsulfanyl)phenyl]-2-(morpholin-4-yl)propan-1-one,LWRBVKNFOYUCNP-UHFFFAOYSA-N,CSc1ccc(cc1)C(=O)C(C)(C)N2CCOCC2,-4.1933811426
A-1587,Isolongifolanone,VCOCESNMLNDPLX-UHFFFAOYSA-N,CC1(C)C2CCC3(C2)C1C(=O)CCC3(C)C,-4.0976122125
A-1588,"1,1-dimethylpropyl 2-(ethylperoxy)hexanoate",IFXDUNDBQDXPQZ-UHFFFAOYSA-N,CCCCC(CC)C(=O)OOC(C)(C)CC,-4.116871778
A-1591,"1,1-dimethoxycyclododecane",XXNCXSHVDVCRKB-UHFFFAOYSA-N,COC1(CCCCCCCCCCC1)OC,-4.1256543516
A-1599,"5-[(5-sulfanylidene-4,5-dihydro-1,3,4-thiadiazol-2-yl)disulfanyl]-2,3-dihydro-1,3,4-thiadiazole-2-thione",DJCISYVIXPWVHY-UHFFFAOYSA-N,S=C1NN=C(SSC2=NNC(=S)S2)S1,-3.2522133148
A-1600,nonan-2-one,VKCYHJWLYTUGCC-UHFFFAOYSA-N,CCCCCCCC(C)=O,-2.9303113789
A-1601,"1-methyl-2,4-dinitrobenzene; 2-methyl-1,3-dinitrobenzene",RMBFBMJGBANMMK-UHFFFAOYSA-N,Cc1ccc(cc1[N+]([O-])=O)[N+]([O-])=O,-3.040285322
A-1602,"Phosphorodithioic acid, mixed O,O-bis(iso-Bu and pentyl) esters, zinc salts",CFGBPGNQMWYJPH-UHFFFAOYSA-L,[Zn++].CC(C)CO[P]([S-])(=S)OCC(C)C.CC(C)CO[P]([S-])(=S)OCC(C)C,-2.5192483347
A-1606,4-[(3-hydroxypropyl)amino]-3-nitrophenol,VTXBLQLZQLHDIL-UHFFFAOYSA-N,OCCCNc1ccc(O)cc1[N+]([O-])=O,-2.1105897103
A-1608,ethyl 2-methyl-4-oxo-6-pentylcyclohex-2-ene-1-carboxylate,ZJLHQWGPVWXKME-UHFFFAOYSA-N,CCCCCC1CC(=O)C=C(C)C1C(=O)OCC,-3.187166345
A-1611,"8-[(4-amino-3-nitrophenyl)diazenyl]-7-hydroxy-N,N,N-trimethylnaphthalen-2-aminium chloride",CMPPYVDBIJWGCB-UHFFFAOYSA-N,[Cl-].C[N+](C)(C)c1ccc2C=CC(=O)C(=N/Nc3ccc(N)c(c3)[N+]([O-])=O)\c2c1,-1.3972424196
A-1612,"1,2-xylene",CTQNGGLPUBDAKN-UHFFFAOYSA-N,Cc1ccccc1C,-2.8191677601
A-1614,"1,4-xylene",URLKBWYHVLBVBO-UHFFFAOYSA-N,Cc1ccc(C)cc1,-2.8191677601