ID,Name,InChIKey,SMILES,Solubility
B-1391,methoxyacetic acid,RMIODHQZRUFFFF-UHFFFAOYSA-N,COCC(O)=O,1.0454
B-1392,2-nitroethanol,KIPMDPDAFINLIV-UHFFFAOYSA-N,OCC[N+]([O-])=O,1.0406
B-1393,ethyl isopropyl ether,XSJVWZAETSBXKU-UHFFFAOYSA-N,CCOC(C)C,-0.5607
B-1394,isopropyl formate,RMOUBSOVHSONPZ-UHFFFAOYSA-N,CC(C)OC=O,-0.6301
B-1395,3-chloroiodobenzene,JMLWXCJXOYDXRN-UHFFFAOYSA-N,Clc1cccc(I)c1,-3.55
B-1397,"2,4-dihydroxypyridine",ZEZJPIDPVXJEME-UHFFFAOYSA-N,OC1=CC(=O)C=CN1,-1.2498
B-1398,"1,3-benzenedimethanol",YWMLORGQOFONNT-UHFFFAOYSA-N,OCc1cccc(CO)c1,-0.2328
B-1399,24pyrimidinedione6methyl,SHVCSCWHWMSGTE-UHFFFAOYSA-N,CC1=CC(=O)NC(=O)N1,-1.2557
B-1400,4-hydroxypyridine,GCNTZFIIOFTKIY-UHFFFAOYSA-N,O=C1C=CNC=C1,1.0218
B-1401,"2-propanol, 1,3-bis(3-methylbutoxy)-",ARRCKRNGGJHASO-UHFFFAOYSA-N,CC(C)CCOCC(O)COCCC(C)C,-1.3662
B-1402,"hexanedioic acid, monoethyl ester",UZNLHJCCGYKCIL-UHFFFAOYSA-N,CCOC(=O)CCCCC(O)=O,-0.3602
B-1403,4-methyl-1-pentanol,PCWGTDULNUVNBN-UHFFFAOYSA-N,CC(C)CCCO,-1.1286
B-1404,2-pentenoic acid,YIYBQIKDCADOSF-ARJAWSKDSA-N,CC\C=C/C(O)=O,-0.2019
B-1405,propyl isopropyl ether,JIEJJGMNDWIGBJ-UHFFFAOYSA-N,CCCOC(C)C,-1.3373
B-1406,1-propylnitrate,JNTOKFNBDFMTIV-UHFFFAOYSA-N,CCCO[N+]([O-])=O,-1.5044
B-1407,3-bromopropanol,RQFUZUMFPRMVDX-UHFFFAOYSA-N,OCCCBr,0.0093
B-1409,3-chloro-1-propanol,LAMUXTNQCICZQX-UHFFFAOYSA-N,OCCCCl,0.4223
B-1410,"ethane, 1-chloro-2-methoxy-",XTIGGAHUZJWQMD-UHFFFAOYSA-N,COCCCl,-0.0725
B-1411,5-methyl-2-hexanol,ZDVJGWXFXGJSIU-UHFFFAOYSA-N,CC(C)CCC(C)O,-1.375
B-1412,"3-isopentyloxy-propane-1,2-diol",AIOHBDYXYKMBIF-UHFFFAOYSA-N,CC(C)CCOCC(O)CO,-1.2101
B-1413,"hexanedioic acid, dimethyl ester",UDSFAEKRVUSQDD-UHFFFAOYSA-N,COC(=O)CCCCC(=O)OC,-1.4629
B-1414,methyl n-butyl ether,CXBDYQVECUFKRK-UHFFFAOYSA-N,CCCCOC,-0.9907
B-1415,ethyl propyl ether,NVJUHMXYKCUMQA-UHFFFAOYSA-N,CCCOCC,-0.6806
B-1416,n-amyl acetate,PGMYKACGEOXYJE-UHFFFAOYSA-N,CCCCCOC(C)=O,-1.8841
B-1417,"1,3-propanediol, diacetate",DSVGICPKBRQDDX-UHFFFAOYSA-N,CC(=O)OCCCOC(C)=O,-0.2046
B-1418,1-heptyne,YVXHZKKCZYLQOP-UHFFFAOYSA-N,CCCCCC#C,-3.0099
B-1420,1-octyne,UMIPWJGWASORKV-UHFFFAOYSA-N,CCCCCCC#C,-3.662
B-1421,n-tridecane,IIYFAKIEWZDVMP-UHFFFAOYSA-N,CCCCCCCCCCCCC,-7.5936
B-1423,n-pentadecane,YCOZIPAWZNQLMR-UHFFFAOYSA-N,CCCCCCCCCCCCCCC,-9.4464
B-1424,1-pentadecanol,REIUXOLGHVXAEO-UHFFFAOYSA-N,CCCCCCCCCCCCCCCO,-6.3476
B-1425,hexacosane,HMSWAIKSFDFLKN-UHFFFAOYSA-N,CCCCCCCCCCCCCCCCCCCCCCCCCC,-8.3339
B-1426,hexatriacontane,YDLYQMBWCWFRAI-UHFFFAOYSA-N,CCCCCCCCCCCCCCCCCCCCCCCCCCCCCCCCCCCC,-8.4746
B-1427,"1,1,1,2-tetrachloroethane",QVLAWKAXOMEXPM-UHFFFAOYSA-N,ClCC(Cl)(Cl)Cl,-2.1955
B-1429,"acetic acid, dibromo-",SIEILFNCEFEENQ-UHFFFAOYSA-N,OC(=O)C(Br)Br,0.9861
B-1430,sulfasomizole,JVYKJZPZFIUYAB-UHFFFAOYSA-N,Cc1cc(N[S](=O)(=O)c2ccc(N)cc2)sn1,-1.0762
B-1432,tetramethylurea,AVQQQNCBBIEMEU-UHFFFAOYSA-N,CN(C)C(=O)N(C)C,0.9349
B-1433,tetrachlorophthalic acid,WZHHYIOUKQNLQM-UHFFFAOYSA-N,OC(=O)c1c(Cl)c(Cl)c(Cl)c(Cl)c1C(O)=O,-1.9264
B-1434,bilirubin,BPYKTIZUTYGOLE-IFADSCNNSA-N,CC1=C(C=C)/C(NC1=O)=C/c2[nH]c(Cc3[nH]c(\C=C\4NC(=O)C(=C4C)C=C)c(C)c3CCC(O)=O)c(CCC(O)=O)c2C,-4.8127
B-1435,resorufin,HSSLDCABUXLXKM-UHFFFAOYSA-N,Oc1ccc2N=C3C=CC(=O)C=C3Oc2c1,-1.0277
B-1436,"4(1h)-pyrimidinone, 2,3-dihydro-5-methyl-2-thiox",ZLAQATDNGLKIEV-UHFFFAOYSA-N,CC1=CNC(=S)NC1=O,-2.4461
B-1440,1-cyclohexene-1-carboxylic acid,NMEZJSDUZQOPFE-UHFFFAOYSA-N,OC(=O)C1=CCCCC1,-1.2558
B-1441,p-benzoquinone oxime,JSTCPNFNKICNNO-UHFFFAOYSA-N,Oc1ccc(cc1)N=O,-1.5462
B-1442,isopropyl propionate,IJMWOMHMDSDKGK-UHFFFAOYSA-N,CCC(=O)OC(C)C,-1.2906
B-1444,ethyl t-butyl ether,NUMQCACRALPSHD-UHFFFAOYSA-N,CCOC(C)(C)C,-0.9302
B-1445,"4h-1,3,5-dithiazine, dihydro-2,4,6-trimethyl-,",FBMVFHKKLDGLJA-UHFFFAOYSA-N,CC1NC(C)SC(C)S1,-1.3679
B-1446,"1,3-diacetylurea",UJQLDFMZDSDZEY-UHFFFAOYSA-N,CC(=O)NC(=O)NC(C)=O,-0.3137
B-1447,tridecanoic acid,SZHOJFHSIKHZHA-UHFFFAOYSA-N,CCCCCCCCCCCCC(O)=O,-3.8126
B-1448,thiometon,OPASCBHCTNRLRM-UHFFFAOYSA-N,CCSCCS[P](=S)(OC)OC,-3.0905
B-1449,fluoroacetamide,FVTWJXMFYOXOKK-UHFFFAOYSA-N,NC(=O)CF,1.1132
B-1450,glycochenodeoxycholic acid,GHCZAUBVMUEKKP-GYPHWSFCSA-N,C[C@H](CCC(=O)NCC(O)=O)[C@H]1CC[C@H]2[C@@H]3[C@H](O)C[C@@H]4C[C@H](O)CC[C@]4(C)[C@H]3CC[C@]12C,-5.1546
B-1451,acetyl benzoyl peroxide,PDAVOLCVHOKLEO-UHFFFAOYSA-N,CC(=O)OOC(=O)c1ccccc1,-2.4502
B-1452,4-propylphenol,KLSLBUSXWBJMEC-UHFFFAOYSA-N,CCCc1ccc(O)cc1,-2.0276
B-1454,"1,3,5-triazin-2(1h)-one, 4,6-diamino-",MASBWURJQFFLOO-UHFFFAOYSA-N,NC1=NC(=O)N=C(N)N1,-3.2291
B-1456,"1,3-dioxalane",WNXJIVFYUVYPPR-UHFFFAOYSA-N,C1COCO1,1.1303
B-1457,5-aminopentanoic acid,JJMDCOVWQOJGCB-UHFFFAOYSA-N,NCCCCC(O)=O,0.9313
B-1458,l-homoserine,UKAUYVFTDYCKQA-VKHMYHEASA-N,N[C@@H](CCO)C(O)=O,0.924
B-1459,simetone,HKAMKLBXTLTVCN-UHFFFAOYSA-N,CCNc1nc(NCC)nc(OC)n1,-1.7898
B-1460,hexamethylphosphoramide,GNOIPBMMFNIUFM-UHFFFAOYSA-N,CN(C)[P](=O)(N(C)C)N(C)C,0.7467
B-1461,"ethanesulfonothioic acid, s-ethyl ester",OICGFSUWXCJLCO-UHFFFAOYSA-N,CCS[S](=O)(=O)CC,-1.109
B-1462,dibutyl dichloro tin,RJGHQTVXGKYATR-UHFFFAOYSA-L,CCCC[Sn](Cl)(Cl)CCCC,-3.5188
B-1463,"ethane, 1,2-dibromo-1,2-dichloro-",RJMDFMUPJANPGX-UHFFFAOYSA-N,ClC(Br)C(Cl)Br,-2.5644
B-1464,"acetamide, 2,2-dichloro-",WCGGWVOVFQNRRS-UHFFFAOYSA-N,NC(=O)C(Cl)Cl,-0.2558
B-1465,1-nitroso-1-methylurea,ZRKWMRDKSOPRRS-UHFFFAOYSA-N,CN(N=O)C(N)=O,-0.8548
B-1466,"d-glucose, 2-deoxy-2-[(ethoxycarbonyl)amino]-",HFLAZFSCYHSMQS-LXGUWJNJSA-N,CCOC(=O)N[C@@H](C=O)[C@@H](O)[C@H](O)[C@H](O)CO,0.1139
B-1467,1-buten-3-yne,WFYPICNXBKQZGB-UHFFFAOYSA-N,C=CC#C,-1.4648
B-1468,4-methyl-1-pentene,WSSSPWUEQFSQQG-UHFFFAOYSA-N,CC(C)CC=C,-3.2439
B-1472,"2(1h)-pyridinone, 1-methyl-",DVVGIUUJYPYENY-UHFFFAOYSA-N,CN1C=CC=CC1=O,0.9621
B-1473,"benzene, iodyl-",BDOLQESNFGCNSC-UHFFFAOYSA-N,O=[I](=O)c1ccccc1,-1.8416
B-1474,"benzenamine, n,3-dimethyl-",FBGJJTQNZVNEQU-UHFFFAOYSA-N,CNc1cccc(C)c1,-2.05
B-1476,3-ethyl-5-methylphenol,XTCHLXABLZQNNN-UHFFFAOYSA-N,CCc1cc(C)cc(O)c1,-1.7696
B-1477,5-methyl-2-nitrophenol,NQXUSSVLFOBRSE-UHFFFAOYSA-N,Cc1ccc(c(O)c1)[N+]([O-])=O,-2.7505
B-1478,4-hydroxypteridine,UWWUXWWWOUNMKW-UHFFFAOYSA-N,O=C1N=CNc2nccnc12,-1.4716
B-1479,2-pteridinamine,HYCZDWGCJOEHBO-UHFFFAOYSA-N,Nc1ncc2nccnc2n1,-2.2979
B-1480,octachlorocyclopentene,DMZRCHJVWAKCAX-UHFFFAOYSA-N,ClC1=C(Cl)C(Cl)(Cl)C(Cl)(Cl)C1(Cl)Cl,-6.5362
B-1481,1-methyl uric acid,QFDRTQONISXGJA-UHFFFAOYSA-N,CN1C(=O)NC2=C(NC(=O)N2)C1=O,-1.5614
B-1482,"thiourea, 3-(nitrophenyl)-",HQEMUQNZGCZHHN-UHFFFAOYSA-N,NC(=S)Nc1cccc(c1)[N+]([O-])=O,-1.4499
B-1483,"1-ph-3,5-dime-4-nitrosopyrazole",SCHFUNOUOHIHSX-UHFFFAOYSA-N,Cc1nn(c2ccccc2)c(C)c1N=O,-3.7355
B-1484,anthracene-9-carboxylic acid,XGWFJBFNAQHLEF-UHFFFAOYSA-N,OC(=O)c1c2ccccc2cc3ccccc13,-3.4174
B-1486,tolyfluanide,HYVWIQDYBVKITD-UHFFFAOYSA-N,CN(C)[S](=O)(=O)N(SC(F)(Cl)Cl)c1ccc(C)cc1,-5.5864
B-1488,"2,4,6-tri(tert-butyl)phenol",PFEFOYRSMXVNEL-UHFFFAOYSA-N,CC(C)(C)c1cc(c(O)c(c1)C(C)(C)C)C(C)(C)C,-3.875
B-1489,bensulide,RRNIZKPFKNDSRS-UHFFFAOYSA-N,CC(C)O[P](=S)(OC(C)C)SCCN[S](=O)(=O)c1ccccc1,-4.2014
B-1490,dimethyltin dichloride,PKKGKUDPKRTKLJ-UHFFFAOYSA-L,C[Sn](C)(Cl)Cl,-1.0407
B-1492,hexaethyl tetraphosphate,DAJYZXUXDOSMCG-UHFFFAOYSA-N,CCO[P](=O)(OCC)O[P](=O)(OCC)O[P](=O)(OCC)O[P](=O)(OCC)OCC,0.2956
B-1493,n-ethyl-n-nitrosourea,FUSGACRLAFQQRL-UHFFFAOYSA-N,CCN(N=O)C(N)=O,-0.9547
B-1495,"propanedioic acid, heptyl-",YSFZWUJOBANROZ-UHFFFAOYSA-N,CCCCCCCC(C(O)=O)C(O)=O,-2.0411
B-1496,octylmalonic acid,QJGNSTCICFBACB-UHFFFAOYSA-N,CCCCCCCCC(C(O)=O)C(O)=O,-2.92
B-1498,1-chloro-2-fluoroethane,VEZJSKSPVQQGIS-UHFFFAOYSA-N,FCCCl,-0.5291
B-1499,2-methyl-1-pentene,WWUVJRULCWHUSA-UHFFFAOYSA-N,CCCC(C)=C,-3.033
B-1501,"2,5-dimethyl-2,4-hexadiene",DZPCYXCBXGQBRN-UHFFFAOYSA-N,CC(C)=CC=C(C)C,-3.537
B-1503,glycidylaldehyde,IWYRWIUNAVNFPE-UHFFFAOYSA-N,O=CC1CO1,1.1423
B-1504,o-chloroanisole,QGRPVMLBTFGQDQ-UHFFFAOYSA-N,COc1ccccc1Cl,-2.4639
B-1505,"2-amino-4,6-dimethylpyrimidine",IDQNBVFPZMCDDN-UHFFFAOYSA-N,Cc1cc(C)nc(N)n1,-0.4884
B-1506,"quinoline, decahydro-",POTIYWUALSJREP-BDAKNGLRSA-N,C1CC[C@@H]2NCCC[C@H]2C1,-1.0831
B-1508,"9,10-dihydrophenanthrene",XXPBFNVKTVJZKF-UHFFFAOYSA-N,C1Cc2ccccc2c3ccccc13,-4.6347
B-1509,"benzoic acid, 2-benzoylhydrazide",GRRIYLZJLGTQJX-UHFFFAOYSA-N,O=C(NNC(=O)c1ccccc1)c2ccccc2,-1.5883
B-1511,"phosphoric acid, diethyl propyl ester",IHPUVAUZMHQZSK-UHFFFAOYSA-N,CCCO[P](=O)(OCC)OCC,0.4063
B-1512,tributylphosphine oxide,MNZAKDODWSQONA-UHFFFAOYSA-N,CCCC[P](=O)(CCCC)CCCC,-0.5932
B-1513,diethyl glutarate,OUWSNHWQZPEFEX-UHFFFAOYSA-N,CCOC(=O)CCCC(=O)OCC,-1.3297
B-1515,calcium methionate,RPHZRUDLEUBFCM-UHFFFAOYSA-L,[Ca++].[O-][S](=O)(=O)C[S]([O-])(=O)=O,0.1255
B-1516,4-penten-1-ol,LQAVWYMTUMSFBE-UHFFFAOYSA-N,OCCCC=C,-0.1793
B-1517,"4,4'-oxydi-2-butanol",AFSYRVDDZGJTIL-UHFFFAOYSA-N,CC(O)CCOCCC(C)O,0.7899
B-1518,"1,12-dodecanedicarboxylic acid",HQHCYKULIHKCEB-UHFFFAOYSA-N,OC(=O)CCCCCCCCCCCCC(O)=O,-3.1112
B-1519,"1,3-dioxolane, 2-(1-methylethyl)-",SMYRHRFGKYUCFB-UHFFFAOYSA-N,CC(C)C1OCCO1,-0.0651
B-1520,"pyrimidine, 2-(methylthio)-",FOEMIZSFFWGXHX-UHFFFAOYSA-N,CSc1ncccn1,-0.402
B-1521,"2,6-dimethyl-1,3-dioxan-4-ol acetate",PHMNXPYGVPEQSJ-UHFFFAOYSA-N,CC1CC(OC(C)O1)OC(C)=O,0.759
B-1522,"1h-purine-2,6-dione, 3,7-dihydro-1,3,8-trimethyl",WZBKGWBHAPBSBF-UHFFFAOYSA-N,CN1C(=O)N(C)c2nc(C)[nH]c2C1=O,-0.7276
B-1523,"1h-purine-2,6-dione, 3,7-dihydro-1,3,7,8-tetrame",LFHHOHMIVKIHMG-UHFFFAOYSA-N,CN1C(=O)N(C)c2nc(C)n(C)c2C1=O,-1.4493
B-1524,"l-tyrosine, n-acetyl-, ethyl ester",SKAWDTAMLOJQNK-LBPRGKRZSA-N,CCOC(=O)[C@H](Cc1ccc(O)cc1)NC(C)=O,-1.8586
B-1525,methoproptryne,DDUIUBPJPOKOMV-UHFFFAOYSA-N,COCCCNc1nc(NC(C)C)nc(SC)n1,-2.9284
B-1526,"2,4-bis((3-methoxypropyl)amino)-6-(methylthio)-s",FBMDQVBGIYSDTI-UHFFFAOYSA-N,COCCCNc1nc(NCCCOC)nc(SC)n1,-3.4792
B-1527,lorazepam,DIWRORZWFLOCLC-UHFFFAOYSA-N,OC1N=C(c2ccccc2Cl)c3cc(Cl)ccc3NC1=O,-3.6036
B-1528,"androst-5-en-17-one,3-(acetyloxy),3-beta-",NCMZQTLCXHGLOK-ZKHIMWLXSA-N,CC(=O)O[C@H]1CC[C@]2(C)[C@H]3CC[C@@]4(C)[C@@H](CCC4=O)[C@@H]3CC=C2C1,-4.4584
B-1529,kebuzone,LGYTZKPVOAIUKX-UHFFFAOYSA-N,CC(=O)CCC1C(=O)N(N(C1=O)c2ccccc2)c3ccccc3,-3.2676
B-1530,"phosphonic acid, (trichloromethyl)-, diethyl est",RVAQSYWDOSHWGP-UHFFFAOYSA-N,CCO[P](=O)(OCC)C(Cl)(Cl)Cl,-1.7541
B-1532,allylidenediacetate,TXECTBGVEUDNSL-UHFFFAOYSA-N,CC(=O)OC(OC(C)=O)C=C,-1.2449
B-1533,"acetamide, n,n'-1,2-ethanediylbis-",WNYIBZHOMJZDKN-UHFFFAOYSA-N,CC(=O)NCCNC(C)=O,0.6755
B-1536,"benzenemethanol, 4-bromo-",VEDDBHYQWFOITD-UHFFFAOYSA-N,OCc1ccc(Br)cc1,-1.9295
B-1537,p-chlorobenzyl alcohol,PTHGDVCPCZKZKR-UHFFFAOYSA-N,OCc1ccc(Cl)cc1,-1.7561
B-1539,"2,4,6-triethoxy-s-triazine",ZLKYBXDNXFQYDL-UHFFFAOYSA-N,CCOc1nc(OCC)nc(OCC)n1,-1.4838
B-1540,3-nitrofluoranthene,PIHGQKMEAMSUNA-UHFFFAOYSA-N,[O-][N+](=O)c1ccc2c3ccccc3c4cccc1c24,-7.1031
B-1541,methacycline,GLFJCEVWKWQSJP-ISFNZQQKSA-N,CN(C)[C@H]1[C@@H]2[C@@H](O)[C@@H]3C(=C)c4cccc(O)c4C(=C3C(=O)[C@]2(O)C(=O)\C(=C(N)/O)C1=O)O,-1.768
B-1542,amidothion,GDTZUQIYUMGJRT-UHFFFAOYSA-N,COCCNC(=O)CS[P](=S)(OC)OC,-1.1356
B-1543,demeton-s-methyl,WEBQKRLKWNIYKK-UHFFFAOYSA-N,CCSCCS[P](=O)(OC)OC,-1.8438
B-1545,"hexanedioic acid, 2,3,3-trimethyl-",YBAXNZSTHONUAE-UHFFFAOYSA-N,CC(C(O)=O)C(C)(C)CCC(O)=O,-1.5265
B-1546,n-(hydroxymethyl)acrylamide,CNCOEDDPFOAUMB-UHFFFAOYSA-N,OCNC(=O)C=C,0.8101
B-1547,"butanamide, n,n'-1,2-ethanediylbis-",AIWAFUBJIYAIGI-UHFFFAOYSA-N,CCCC(=O)NCCNC(=O)CCC,-0.6222
B-1548,6-undecanone,ZPQAKYPOZRXKFA-UHFFFAOYSA-N,CCCCCC(=O)CCCCC,-3.5322
B-1549,butyl nitrate,QQHZPQUHCAKSOL-UHFFFAOYSA-N,CCCCO[N+]([O-])=O,-2.0268
B-1550,3-hexyne,DQQNMIPXXNPGCV-UHFFFAOYSA-N,CCC#CCC,-2.1675
B-1551,n-nitrosopyrrolidine,WNYADZVDBIBLJJ-UHFFFAOYSA-N,O=NN1CCCC1,0.9995
B-1552,n-nitrosohexamethyleneimine,UZMVSVHUTOAPTD-UHFFFAOYSA-N,O=NN1CCCCCC1,-1.0006
B-1553,"2,3,6-trichlorophenol",XGCHAIDDPMFRLJ-UHFFFAOYSA-N,Oc1c(Cl)ccc(Cl)c1Cl,-2.6422
B-1555,2-azacyclo-nonanone,YDLSUFFXJYEVHW-UHFFFAOYSA-N,O=C1CCCCCCCN1,0.6329
B-1556,"2,3-dihydro-1,2-benzisothiazole-1,1-dioxide",GVYVHZKTSVDMNT-UHFFFAOYSA-N,O=[S]1(=O)NCc2ccccc12,-1.5208
B-1558,n-benzyl-n-methylnitrosoamine,NGXUJKBJBFLCAR-UHFFFAOYSA-N,CN(Cc1ccccc1)N=O,-1.5224
B-1559,"2h-1-benzopyran-2-one, 4-bromo-",CSMSWYXPXRIHBY-UHFFFAOYSA-N,BrC1=CC(=O)Oc2ccccc12,-1.6533
B-1560,"2,3,4,5-tetrachloroanisole",FUUHMSUPRUNWRQ-UHFFFAOYSA-N,COc1cc(Cl)c(Cl)c(Cl)c1Cl,-5.2605
B-1561,p-methylphenoxyacetic acid,SFTDDFBJWUWKMN-UHFFFAOYSA-N,Cc1ccc(OCC(O)=O)cc1,-2.1414
B-1563,"benzene, 1,2,3,4-tetrachloro-5,6-dimethoxy-",NCYHCGGUQGDEQW-UHFFFAOYSA-N,COc1c(Cl)c(Cl)c(Cl)c(Cl)c1OC,-5.2394
B-1564,cyolane,ILBONRFSLATCRE-UHFFFAOYSA-N,CCO[P](=O)(OCC)N=C1SCCS1,-2.5941
B-1566,"phosphoramidic acid, (4-methyl-1,3-dithiolan-2-y",LTQSAUHRSCMPLD-UHFFFAOYSA-N,CCO[P](=O)(OCC)N=C1SCC(C)S1,-3.6744
B-1569,medrogestone,HCFSGRMEEXUOSS-UHFFFAOYSA-N,CC(=O)C1(C)CCC2C3C=C(C)C4=CC(=O)CCC4(C)C3CCC12C,-5.2721
B-1570,methylphosphonic acid,YACKEPLHDIMKIO-UHFFFAOYSA-N,C[P](O)(O)=O,-0.6813
B-1571,"n,n-dimethylisopropylamine",VMOWKUTXPNPTEN-UHFFFAOYSA-N,CC(C)N(C)C,1.0597
B-1572,"acetic acid, (nitrooxy)-, ethyl ester",PMCOPORTQICYLN-UHFFFAOYSA-N,CCOC(=O)CO[N+]([O-])=O,-1.7111
B-1573,"glycine, n-(ethoxycarbonyl)-, ethyl ester",ORKAHUKYJCNDDI-UHFFFAOYSA-N,CCOC(=O)CNC(=O)OCC,-0.2435
B-1574,2-hydroxypropyl acrylate,GWZMWHWAWHPNHN-UHFFFAOYSA-N,CC(O)COC(=O)C=C,0.8856
B-1575,hydroxymethyl urea,VGGLHLAESQEWCR-UHFFFAOYSA-N,NC(=O)NCO,-0.3463
B-1576,1-pentyl nitrate,HSNWZBCBUUSSQD-UHFFFAOYSA-N,CCCCCO[N+]([O-])=O,-2.568
B-1577,"2,5-dimethyltetrahydrofuran",OXMIDRBAFOEOQT-UHFFFAOYSA-N,CC1CCC(C)O1,0.0723
B-1578,4-methyl-n-oxidepyridine,IWYYIZOHWPCALJ-UHFFFAOYSA-N,Cc1cc[n+]([O-])cc1,0.9621
B-1579,3-methyl-n-oxidepyridine,DMGGLIWGZFZLIY-UHFFFAOYSA-N,CC1=CC=C[NH++]([O-])[CH-]1,0.9621
B-1580,desisopropylatrazine,IVENSCMCQBJAKW-UHFFFAOYSA-N,CCNc1nc(N)nc(Cl)n1,-2.4135
B-1581,azacycloundecan-2-one,WULPUQZASCZTPO-UHFFFAOYSA-N,O=C1CCCCCCCCCN1,-1.8862
B-1582,desmetryne,HCRWJJJUKUVORR-UHFFFAOYSA-N,CNc1nc(NC(C)C)nc(SC)n1,-2.5656
B-1583,"1h-purine-2,6-dione, 7-butyl-3,7-dihydro-1,3-dim",CPRWWXKLQNLTSZ-UHFFFAOYSA-N,CCCCn1cnc2N(C)C(=O)N(C)C(=O)c12,-1.8069
B-1584,"4h-3,1-benzoxazin-4-one, 2-phenyl",HTTLBYITFHMYFK-UHFFFAOYSA-N,O=C1OC(=Nc2ccccc12)c3ccccc3,-4.6084
B-1585,heptachlor epoxide,ZXFXBSWRVIQKOD-UHFFFAOYSA-N,ClC1C2OC2C3C1C4(Cl)C(=C(Cl)C3(Cl)C4(Cl)Cl)Cl,-6.2893
B-1586,"phosphonic diamide, p-(5-amino-3-phenyl-1h-1,2,4",BABJTMNVJXLAEX-UHFFFAOYSA-N,CN(C)[P](=O)(N(C)C)n1nc(nc1N)c2ccccc2,-3.0709
B-1587,"glycine, n-(2,4,6-trinitrophenyl)-",BUBMNUKMCHTIRR-UHFFFAOYSA-N,OC(=O)CNc1c(cc(cc1[N+]([O-])=O)[N+]([O-])=O)[N+]([O-])=O,-2.3922
B-1588,octyl gallate,NRPKURNSADTHLJ-UHFFFAOYSA-N,CCCCCCCCOC(=O)c1cc(O)c(O)c(O)c1,-3.8945
B-1589,dimethylsilanediol,XCLIHDJZGPCUBT-UHFFFAOYSA-N,C[Si](C)(O)O,1.0354
B-1590,di-n-butyl tin diacetate,JJLKTTCRRLHVGL-UHFFFAOYSA-L,CCCC[Sn++]CCCC.CC([O-])=O.CC([O-])=O,-4.7672
B-1591,glyphosphate,XDDAORKBJWWYJS-UHFFFAOYSA-N,OC(=O)CNC[P](O)(O)=O,-1.2069
B-1592,"1,3,4-thiadiazolidine-2,5-dithione",BIGYLAKFCGVRAN-UHFFFAOYSA-N,S=C1NNC(=S)S1,-0.7552
B-1593,1-bromo-2-fluorobenzene,IPWBFGUBXWMIPR-UHFFFAOYSA-N,Fc1ccccc1Br,-2.6958
B-1594,"1h-pyrazol-4-ol, 1-phenyl-",PAIIFXHEHLRVNC-UHFFFAOYSA-N,Oc1cnn(c1)c2ccccc2,-1.9616
B-1595,1-phenylheptane,LBNXAWYDQUGHGX-UHFFFAOYSA-N,CCCCCCCc1ccccc1,-5.5959
B-1596,hexyl p-hydroxybenzoate,ULULAZKOCFNOIM-UHFFFAOYSA-N,CCCCCCOC(=O)c1ccc(O)cc1,-3.949
B-1597,heptyl p-hydroxybenzoate,ZTJORNVITHUQJA-UHFFFAOYSA-N,CCCCCCCOC(=O)c1ccc(O)cc1,-4.0725
B-1598,dichlofluanid,WURGXGVFSMYFCG-UHFFFAOYSA-N,CN(C)[S](=O)(=O)N(SC(F)(Cl)Cl)c1ccccc1,-5.4088
B-1599,prednisolone 21-trimethylacetate,PHEOVVDXTQVHAZ-UHFFFAOYSA-N,CC(C)(C)C(=O)OCC(=O)C1(O)CCC2C3CCC4=CC(=O)C=CC4(C)C3C(O)CC12C,-4.5835
B-1600,dimethoxon,PZXOQEXFMJCDPG-UHFFFAOYSA-N,CNC(=O)CS[P](=O)(OC)OC,0.6712
B-1602,"dl-methionine, n-acetyl-",XUYPXLNMDZIRQH-ZCFIWIBFSA-M,CSCC[C@@H](NC(C)=O)C([O-])=O,-0.3216
B-1603,"heptanoic acid, 2-amino-, (.+-.)-",RDFMDVXONNIGBC-UHFFFAOYSA-N,CCCCCC(N)C(O)=O,-0.94
B-1604,n-nitrosodiethanolamine,YFCDLVPYFMHRQZ-UHFFFAOYSA-N,OCCN(CCO)N=O,0.8724
B-1605,tri(n-octyl)amine,XTAZYLNFDRKIHJ-UHFFFAOYSA-N,CCCCCCCCN(CCCCCCCC)CCCCCCCC,-6.8496
B-1606,"urea, (1,1-dimethylethyl)-",JLEHSYHLHLHPAL-UHFFFAOYSA-N,CC(C)(C)NC(N)=O,-0.7306
B-1607,"1,3-disiloxanediol, 1,1,3,3-tetramethyl-",PFEAZKFNWPIFCV-UHFFFAOYSA-N,C[Si](C)(O)O[Si](C)(C)O,-0.1796
B-1608,"pentanedioic acid, dimethyl ester",XTDYIOOONNVFMA-UHFFFAOYSA-N,COC(=O)CCCC(=O)OC,-0.4337
B-1610,2-heptyne,AMSFEMSYKQQCHL-UHFFFAOYSA-N,CCCCC#CC,-2.7695
B-1611,n-undecane,RSJKGSCJYJTIGS-UHFFFAOYSA-N,CCCCCCCCCCC,-7.5505
B-1612,"2,4,5-trimethylpyridine",MNDSSKADVGDFDF-UHFFFAOYSA-N,Cc1cc(C)c(C)cn1,-0.7824
B-1613,4-dimethylaminopyridine,VHYFNPMBLIVWCW-UHFFFAOYSA-O,CN(C)c1cc[nH+]cc1,-0.2062
B-1614,"pyridine, 2-ethyl-6-methyl-",SFSXNVBMAODLGN-UHFFFAOYSA-N,CCc1cccc(C)n1,-0.8234
B-1615,1-hydroxy-cyclohexanecarboxylic acid,BPOVRAAUERBWFK-UHFFFAOYSA-N,OC(=O)C1(O)CCCCC1,-0.3328
B-1616,"phenol, 4-chloro-2,6-dimethyl-",VWYKSJIPZHRLNO-UHFFFAOYSA-N,Cc1cc(Cl)cc(C)c1O,-1.6763
B-1618,"pteridine, 7-chloro-",AANUQVPVSJJCRI-UHFFFAOYSA-N,Clc1cnc2cncnc2n1,-0.8749
B-1619,"1,2-benzenediol, 4-(2-propenyl)-",FHEHIXJLCWUPCZ-UHFFFAOYSA-N,Oc1ccc(CC=C)cc1O,-0.7787
B-1620,"1h-pyrazol-5-amine, 3-methyl-1-phenyl-",FMKMKBLHMONXJM-UHFFFAOYSA-N,Cc1cc(N)n(n1)c2ccccc2,-0.9376
B-1621,p-cyclohexylphenol,OAHMVZYHIJQTQC-UHFFFAOYSA-N,Oc1ccc(cc1)C2CCCCC2,-3.468
B-1622,cycloate,DFCAFRGABIXSDS-UHFFFAOYSA-N,CCSC(=O)N(CC)C1CCCCC1,-3.4037
B-1623,diphenyltin dichloride,ISXUHJXWYNONDI-UHFFFAOYSA-L,Cl[Sn](Cl)(c1ccccc1)c2ccccc2,-3.8373
B-1624,1-butyl theobromine,ZCUPBJOZMPROIJ-UHFFFAOYSA-N,CCCCN1C(=O)N(C)c2ncn(C)c2C1=O,-1.6252
B-1625,tolazamide,OUDSBRTVNLOZBN-UHFFFAOYSA-N,Cc1ccc(cc1)[S](=O)(=O)NC(=O)NN2CCCCCC2,-3.6778
B-1626,peruvoside,PMTSPAGBAFCORP-DGORKHCUSA-N,COC1[C@H](O)C(C)O[C@H](O[C@H]2CC[C@@]3(C=O)[C@H](CCC4C3CC[C@]5(C)[C@H](CC[C@]45O)C6=CC(=O)OC6)C2)C1O,-3.1373
B-1628,"butanedioic acid, 2,3-diethyl-",KJXMXCRSMLOXBM-UHFFFAOYSA-N,CCC(C(CC)C(O)=O)C(O)=O,-0.8608
B-1629,3-hydroxy-aspartic acid,YYLQUHNPNCGKJQ-NHYDCYSISA-N,N[C@@H]([C@@H](O)C(O)=O)C(O)=O,-0.8271
B-1630,"urea, tetraethyl-",UWHSPZZUAYSGTB-UHFFFAOYSA-N,CCN(CC)C(=O)N(CC)CC,-0.6341
B-1631,"l-leucine, n-acetyl-",WXNXCEHXYPACJF-ZETCQYMHSA-N,CC(C)C[C@H](NC(C)=O)C(O)=O,-1.3301
B-1633,"2,5-dihydroxybenzaldehyde",CLFRCXCBWIQVRN-UHFFFAOYSA-N,Oc1ccc(O)c(C=O)c1,-1.0004
B-1634,tranexamic acid,GYDJEQRTZSCIOI-UHFFFAOYSA-N,NCC1CCC(CC1)C(O)=O,0.0255
B-1635,"2,4-dimethylquinoline",ZTNANFDSJRRZRJ-UHFFFAOYSA-N,Cc1cc(C)c2ccccc2n1,-1.9424
B-1637,"dl-alanine, n-benzoyl-",UAQVHNZEONHPQG-UHFFFAOYSA-N,CC(NC(=O)c1ccccc1)C(O)=O,-1.6839
B-1638,methyl n-benzoglycine,XTKVNQKOTKPCKM-UHFFFAOYSA-N,COC(=O)CNC(=O)c1ccccc1,-1.0556
B-1639,"10h-phenothiazine, 10-methyl-",QXBUYALKJGBACG-UHFFFAOYSA-N,CN1c2ccccc2Sc3ccccc13,-5.5934
B-1641,"benzoic acid, 4-hydroxy, octyl ester",RIKCMEDSBFQFAL-UHFFFAOYSA-N,CCCCCCCCOC(=O)c1ccc(O)cc1,-4.2224
B-1642,galaxolide,ONKNPOPIGWHAQC-UHFFFAOYSA-N,CC1COCc2cc3c(cc12)C(C)(C)C(C)C3(C)C,-5.1693
B-1643,homidium bromide [ban:inn],ZMMJGEGLRURXTF-UHFFFAOYSA-N,[Br-].CC[n+]1c2cc(N)ccc2c3ccc(N)cc3c1c4ccccc4,-1.2948
B-1644,2-ethylhexyl diphenyl phosphate,CGSLYBDCEGBZCG-UHFFFAOYSA-N,CCCCC(CC)CO[P](=O)(Oc1ccccc1)Oc2ccccc2,-5.2804
B-1645,"3h-pyrazol-3-one, 4,4'-methylenebis[1,2-dihydro-",QATHNKNPUVVKHK-UHFFFAOYSA-N,CN1N(C(=O)C(=C1C)CC2=C(C)N(C)N(C2=O)c3ccccc3)c4ccccc4,-2.9549
B-1646,carminic acid,DGQLVPJVXFOQEV-NGOCYOHBSA-N,Cc1c(C(O)=O)c(O)cc2C(=O)c3c(O)c(O)c([C@H]4O[C@H](CO)[C@@H](O)[C@H](O)[C@H]4O)c(O)c3C(=O)c12,-2.5784
B-1650,tetramethyl decynediol,WWPTYZFXUOTSDY-UHFFFAOYSA-N,CC(C)C(C)C(C)C(O)C#CC(C)C(C)O,-2.2756
B-1651,carmine,DGQLVPJVXFOQEV-UHFFFAOYSA-N,Cc1c(C(O)=O)c(O)cc2C(=O)c3c(O)c(O)c(C4OC(CO)C(O)C(O)C4O)c(O)c3C(=O)c12,-2.5784
B-1652,aloin,AFHJQYHRLPMKHU-WEZNYRQKSA-N,OC[C@H]1O[C@H]([C@H](O)[C@@H](O)[C@@H]1O)[C@@H]2c3cccc(O)c3C(=O)c4c(O)cc(CO)cc24,-1.7025
B-1653,niclosamide ethanolamine salt,XYCDHXSQODHSLG-UHFFFAOYSA-N,NCCO.Oc1ccc(Cl)cc1C(=O)Nc2ccc(cc2Cl)[N+]([O-])=O,-3.5891
B-1654,trifenmorph,ZJMLMBICUVVJDX-UHFFFAOYSA-N,C1CN(CCO1)C(c2ccccc2)(c3ccccc3)c4ccccc4,-7.2168
B-1655,dinoterb,IIPZYDQGBIWLBU-UHFFFAOYSA-N,CC(C)(C)c1cc(cc(c1O)[N+]([O-])=O)[N+]([O-])=O,-4.7274