ID,Name,InChIKey,SMILES,Solubility
C-2081,"2,4,6-trichlorodiphenyl  ether",WXLQUFLKMICSSY-UHFFFAOYSA-N,ClC1=CC(=C(OC2=CC=CC=C2)C(=C1)Cl)Cl,-6.11
C-2082,thebaine,FQXXSQDCDRQNQE-UHFFFAOYSA-N,COC1=CC=C2C3CC4=C5C(=C(OC)C=C4)OC1C25CCN3C,-2.66
C-2083,1-amino-3-naphthalenesulfonic  acid,HXXMONHYPKNZHE-UHFFFAOYSA-N,NC1=CC(=CC2=C1C=CC=C2)[S](O)(=O)=O,-2.34
C-2086,"2,3,6-trichlorodiphenyl  ether",RQSRPDGSUDRYLH-UHFFFAOYSA-N,ClC1=CC=C(Cl)C(=C1Cl)OC2=CC=CC=C2,-5.95
C-2087,thebainone,SLJDAVMWFVYEFI-UHFFFAOYSA-N,COC1=C(O)C2=C(CC3C4C=CC(=O)CC24CCN3C)C=C1,-1.87
C-2088,n-isonicotinoyl-n'-(2-methylbenzoyl)hydrazine,FHPBWQWLOSHMLI-UHFFFAOYSA-N,CC1=C(C=CC=C1)C(=O)NNC(=O)C2=CC=NC=C2,-2.73
C-2089,"2-ethyl-1-methyl-1,2,3,4-tetrahydro-2,4a,9-triazaanthracen-10-one; ethyl-methylpyridoquinazolone",QBNMZYNBZAKUSP-UHFFFAOYSA-N,CCN1CCN2C(=O)C3=C(C=CC=C3)N=C2C1C,-2.5
C-2090,dinoseb  acetate,RDJTWDKSYLLHRW-UHFFFAOYSA-N,CCC(C)C1=C(OC(C)=O)C(=CC(=C1)[N+]([O-])=O)[N+]([O-])=O,-2.25
C-2091,7-propanoyltheophylline,ZPUJWKXAFJEHDZ-UHFFFAOYSA-N,CCC(=O)[N]1C=NC2=C1C(=O)N(C)C(=O)N2C,-1.1
C-2092,antazoline,REYFJDPCWQRWAA-UHFFFAOYSA-N,C1CN=C(CN(CC2=CC=CC=C2)C3=CC=CC=C3)N1,-2.6
C-2094,2-amino-5-naphthalenesulfonic  acid;  6-amino-1-naphthalenesulfonic acid,YUNBHHWDQDGWHC-UHFFFAOYSA-N,NC1=CC2=C(C=C1)C(=CC=C2)[S](O)(=O)=O,-2.75
C-2097,dihydroequilenin,RYWZPRVUQHMJFF-UHFFFAOYSA-N,CC12CCC3=C(C=CC4=C3C=CC(=C4)O)C1CCC2O,-4.64
C-2100,zileuton,MWLSOWXNZPKENC-UHFFFAOYSA-N,CC(N(O)C(N)=O)C1=CC2=C(S1)C=CC=C2,-3.37
C-2101,1-amino-5-naphthalenesulfonic  acid,DQNAQOYOSRJXFZ-UHFFFAOYSA-N,NC1=CC=CC2=C1C=CC=C2[S](O)(=O)=O,-2.35
C-2103,1-amino-4-naphthalenesulfonic  acid;  4-amino-1-naphthalenesulfonic acid,NRZRRZAVMCAKEP-UHFFFAOYSA-N,NC1=CC=C(C2=C1C=CC=C2)[S](O)(=O)=O,-2.91
C-2104,"9-[2-(indol-3-yl)ethyl]-1-oxa-3-oxo-4,9-diazaspiro[5,5]undecane",SPALXTYNFFFDEM-UHFFFAOYSA-N,O=C1COC2(CCN(CCC3=C[NH]C4=C3C=CC=C4)CC2)CN1,-2.99
C-2105,"3-(1-aziridinyl)-4,6-dinitro-(n-ethyl)benzamide",YQQRZTDOPIBVHX-UHFFFAOYSA-N,CCNC(=O)C1=CC(=C(C=C1[N+]([O-])=O)[N+]([O-])=O)N2CC2,-3.13
C-2106,timobesone  acetate,NWJQIUPQBDVVLW-UHFFFAOYSA-N,CSC(=O)C1(OC(C)=O)C(C)CC2C3CCC4=CC(=O)C=CC4(C)C3(F)C(O)CC12C,-6.22
C-2107,4-benzoylaminophenyl  acetate;  acetic acid 4-benzoylaminophenyl ester,MBMANTPXLYUUGC-UHFFFAOYSA-N,CC(=O)OC1=CC=C(NC(=O)C2=CC=CC=C2)C=C1,-4.14
C-2108,"1,2,4-trimethyl-1,2,3,4-tetrahydro-2,4a,9-triazaanthracen-10-one; trimethylpyridoquinazolone",XURLBPGUZQJXEK-UHFFFAOYSA-N,CC1CN(C)C(C)C2=NC3=C(C=CC=C3)C(=O)N12,-2.09
C-2109,1-amino-8-naphthalenesulfonic  acid,CYJJLCDCWVZEDZ-UHFFFAOYSA-N,NC1=CC=CC2=C1C(=CC=C2)[S](O)(=O)=O,-3.07
C-2111,"proxicromil analog iii;  cyclohexano(6,7)chromone-2-carboxylic acid",AGIKBILZJVNZNW-UHFFFAOYSA-N,OC(=O)C1=CC(=O)C2=C(O1)C=C3CCCCC3=C2,-1.05
C-2112,3-benzoyloxyphenyl  isothiocyanate;  benzoic acid 3-isothiocyanatophenyl ester,YPRUUTYWPBBBGA-UHFFFAOYSA-N,O=C(OC1=CC=CC(=C1)N=C=S)C2=CC=CC=C2,-4.85
C-2114,7-methoxycarbonyltheophylline,JDORMWPGTNFOBC-UHFFFAOYSA-N,COC(=O)[N]1C=NC2=C1C(=O)N(C)C(=O)N2C,-1.24
C-2115,ibuprofen ester iic; n-methyl-n-[2-(2'-(4''-isobutylphenyl)propanoyloxy)acetyl]glycineamide,KHKOSGDSOXGMOO-UHFFFAOYSA-N,CC(C)CC1=CC=C(C=C1)C(C)C(=O)OCC(=O)N(C)CC(N)=O,-3.41
C-2117,7-theophyllinylmethyl  acetate;  7-(acetoxymethyl)theophylline,BKXGMMLAXFAIGQ-UHFFFAOYSA-N,CN1C(=O)N(C)C2=C([N](COC(C)=O)C=N2)C1=O,-1.83
C-2118,tropicamide,BGDKAVGWHJFAGW-UHFFFAOYSA-N,CCN(CC1=CC=NC=C1)C(=O)C(CO)C2=CC=CC=C2,-1.7
C-2119,3-isothiocyanatophenyl  nicotinate,OUAPWRYEWXOCRN-UHFFFAOYSA-N,O=C(OC1=CC=CC(=C1)N=C=S)C2=CC=CN=C2,-4.3
C-2123,6-(s-octanoyloxymethyl)mercaptopurine;  6-(octanoyloxymethylthio)purine,RLAQXWWETVAEAC-UHFFFAOYSA-N,CCCCCCCC(=O)OCSC1=NC=NC2=C1N=C[NH]2,-4.62
C-2124,"1-methyl-2-propyl-1,2,3,4-tetrahydro-2,4a,9-triazaanthracen-10-one",NOQKFJQTGOUYSP-UHFFFAOYSA-N,CCCN1CCN2C(=O)C3=C(C=CC=C3)N=C2C1C,-2.31
C-2125,"(-)-(r)-1,2-bis(2,6-dioxopiperazin-4-yl)propane;  nsc-129943;  icrf 159;  razoxane (+/-)",BMKDZUISNHGIBY-UHFFFAOYSA-N,CC(CN1CC(=O)NC(=O)C1)N2CC(=O)NC(=O)C2,-1.27
C-2127,7-butyryltheophylline;  7-butanoyltheophylline,MZWAEHYAKJOENW-UHFFFAOYSA-N,CCCC(=O)[N]1C=NC2=C1C(=O)N(C)C(=O)N2C,-1.53
C-2129,prednisone-21-acetate,MOVRKLZUVNCBIP-UHFFFAOYSA-N,CC(=O)OCC(=O)C1(O)CCC2C3CCC4=CC(=O)C=CC4(C)C3C(=O)CC12C,-4.24
C-2131,"3-(1-aziridinyl)-4,6-dinitro-(n-propyl)benzamide",QTBORRHTRCJQKU-UHFFFAOYSA-N,CCCNC(=O)C1=CC(=C(C=C1[N+]([O-])=O)[N+]([O-])=O)N2CC2,-3.89
C-2134,equilenin,PDRGHUMCVRDZLQ-UHFFFAOYSA-N,CC12CCC3=C(C=CC4=C3C=CC(=C4)O)C1CCC2=O,-4.96
C-2137,cephradine,RDLPVSKMFDYCOR-UHFFFAOYSA-N,CC1=C(N2C(SC1)C(NC(=O)C(N)C3=CCC=CC3)C2=O)C(O)=O,-1.22
C-2138,7-(ethoxycarboxymethyl)theophylline;  7-(ethoxycarbonyloxymethyl)theophylline,CRROIRSDBVLXGH-UHFFFAOYSA-N,CCOC(=O)OC[N]1C=NC2=C1C(=O)N(C)C(=O)N2C,-1.86
C-2139,"3-(1-aziridinyl)-4,6-dinitro-(n-isopropyl)benzamide",UNDIGYDOFLWDTF-UHFFFAOYSA-N,CC(C)NC(=O)C1=CC(=C(C=C1[N+]([O-])=O)[N+]([O-])=O)N2CC2,-3.5
C-2140,"2,2',3,5-tetrachlorobiphenyl",NRBNBYFPJCCKTO-UHFFFAOYSA-N,ClC1=CC(=C(Cl)C(=C1)Cl)C2=CC=CC=C2Cl,-6.23
C-2141,7-(ethoxycarbonyl)theophylline,QSIIYGLZPGMUMS-UHFFFAOYSA-N,CCOC(=O)[N]1C=NC2=C1C(=O)N(C)C(=O)N2C,-1.65
C-2142,"2-ethyl-1,4-dimethyl-1,2,3,4-tetrahydro-2,4a,9-triazaanthracen-10-one",LCXJKYZWJXSRIT-UHFFFAOYSA-N,CCN1CC(C)N2C(=O)C3=C(C=CC=C3)N=C2C1C,-2.46
C-2143,4-(3-phenylureido)phenyl  acetate;  acetic acid 4-(3-phenylureido)phenyl ester,HYDYEUKNONPEFM-UHFFFAOYSA-N,CC(=O)OC1=CC=C(NC(=O)NC2=CC=CC=C2)C=C1,-4.44
C-2145,7-(propionyloxymethyl)theophylline;  7-(propanoyloxymethyl)theophylline,IMLOLBJKVGTVRZ-UHFFFAOYSA-N,CCC(=O)OC[N]1C=NC2=C1C(=O)N(C)C(=O)N2C,-2.3
C-2148,nifurtoinol;  3-(hydroxymethyl)nitrofurantoin,UIDWQGRXEVDFCA-XCVCLJGOSA-N,OCN1C(=O)CN(/N=C/C2=CC=C(O2)[N+]([O-])=O)C1=O,-2.91
C-2149,2-(3-acetylphenylamino)benzoic acid,URNBQFPUGNNQRC-UHFFFAOYSA-N,CC(=O)C1=CC=CC(=C1)NC2=CC=CC=C2C(O)=O,-4.86
C-2150,"2,2',3,6'-tetrachlorobiphenyl",CUGLICQCTXWQNF-UHFFFAOYSA-N,ClC1=CC=CC(=C1Cl)C2=C(Cl)C=CC=C2Cl,-6.3
C-2152,cgp 65015;  (+)-3-hydroxy-1-(2-hydroxyethyl)-2-(alpha-hydroxybenzyl)-1h-pyridin-4-one,ZMDGUPJAPMSCIZ-UHFFFAOYSA-N,OCCN1C=CC(=O)C(=C1C(O)C2=CC=CC=C2)O,-2.82
C-2153,"3,3',4,4'-tetrachlorodiphenyl  ether",DHLVZXZRIZBPKG-UHFFFAOYSA-N,ClC1=C(Cl)C=C(OC2=CC=C(Cl)C(=C2)Cl)C=C1,-6.98
C-2154,etodolac,NNYBQONXHNTVIJ-UHFFFAOYSA-N,CCC1=CC=CC2=C1[NH]C3=C2CCOC3(CC)CC(O)=O,-3.31
C-2155,"2-aminosulfonyl-5-methylsulfonamido-1,3,4-thiadiazole",OXRPANDQRBDMRL-UHFFFAOYSA-N,C[S](=O)(=O)NC1=NN=C(S1)[S](N)(=O)=O,-1.68
C-2156,"sertraline;  (1s,4s)-4-(3,4-dichlorophenyl)-1,2,3,4-tetrahydro-n-methyl-1-naphthalenamine",VGKDLMBJGBXTGI-UHFFFAOYSA-N,CNC1CCC(C2=CC(=C(Cl)C=C2)Cl)C3=C1C=CC=C3,-5.23
C-2157,2-[(4-phenylazophenyl)hydrazono]malononitrile,LDBWPTYGGBUCTJ-UHFFFAOYSA-N,N#CC(=NNC1=CC=C(C=C1)N=NC2=CC=CC=C2)C#N,-4.92
C-2158,"3,4,4',5-tetrachlorodiphenyl  ether",CAUBBRCOHHHCNG-UHFFFAOYSA-N,ClC1=CC=C(OC2=CC(=C(Cl)C(=C2)Cl)Cl)C=C1,-7.35
C-2159,"3,3',4,5'-tetrachlorodiphenyl  ether",BUPRSRBWDJVKGG-UHFFFAOYSA-N,ClC1=CC(=CC(=C1)OC2=CC=C(Cl)C(=C2)Cl)Cl,-7.32
C-2160,7-pentanoyltheophylline,SJVQUFBQNJUYFR-UHFFFAOYSA-N,CCCCC(=O)[N]1C=NC2=C1C(=O)N(C)C(=O)N2C,-2.12
C-2162,l-dopa benzyl ester,KZQJKVJONMBQQU-UHFFFAOYSA-N,NC(CC1=CC(=C(O)C=C1)O)C(=O)OCC2=CC=CC=C2,-1.81
C-2163,"2,3',4,4'-tetrachlorodiphenyl  ether",CAWSVYYOUZEMHA-UHFFFAOYSA-N,ClC1=CC=C(OC2=CC(=C(Cl)C=C2)Cl)C(=C1)Cl,-7
C-2165,"2,4,4',5-tetrachlorodiphenyl  ether",KXOJXWNARBQHNX-UHFFFAOYSA-N,ClC1=CC=C(OC2=CC(=C(Cl)C=C2Cl)Cl)C=C1,-7.04
C-2167,"1-chloro-2,4-dinitronaphthalene",SKKUAUZTZZRYPW-UHFFFAOYSA-N,[O-][N+](=O)C1=C(Cl)C2=C(C=CC=C2)C(=C1)[N+]([O-])=O,-5.4
C-2169,"3-(aziridin-1-yl)-4,6-dinitro-n-(isobutyl)benzamide",RRIIHXZPZQGCGU-UHFFFAOYSA-N,CC(C)CNC(=O)C1=CC(=C(C=C1[N+]([O-])=O)[N+]([O-])=O)N2CC2,-3.85
C-2171,"2,3',4,5'-tetrachlorodiphenyl  ether",XORVNHCKWFPDLN-UHFFFAOYSA-N,ClC1=CC=C(OC2=CC(=CC(=C2)Cl)Cl)C(=C1)Cl,-7.14
C-2172,"2,3',4',5-tetrachlorodiphenyl  ether",MFTPXFIGIJCNJM-UHFFFAOYSA-N,ClC1=CC=C(Cl)C(=C1)OC2=CC=C(Cl)C(=C2)Cl,-7.07
C-2173,"2,3,4,4'-tetrachlorodiphenyl  ether",ZPOBHUZRVVTGKB-UHFFFAOYSA-N,ClC1=CC=C(OC2=CC=C(Cl)C(=C2Cl)Cl)C=C1,-7.01
C-2174,5'-propanoylidoxuridine; 5'-propanoyl-5-iodo-2'-deoxyuridine; 5'-propanoyl-idu,DJVMRHACLIROPJ-UHFFFAOYSA-N,CCC(=O)OCC1OC(CC1O)N2C=C(I)C(=O)NC2=O,-2.46
C-2175,"2,3,4',5-tetrachlorodiphenyl  ether",YHQRYZGDQCSHFO-UHFFFAOYSA-N,ClC1=CC=C(OC2=CC(=CC(=C2Cl)Cl)Cl)C=C1,-7.14
C-2176,"2,3,3',4'-tetrachlorodiphenyl  ether",JVFGXWCLGNACOG-UHFFFAOYSA-N,ClC1=C(Cl)C=C(OC2=CC=CC(=C2Cl)Cl)C=C1,-6.9
C-2177,7-(pivaloyloxymethyl)theophylline (viii),BFABOEKGZASJFN-UHFFFAOYSA-N,CN1C(=O)N(C)C2=C([N](COC(=O)C(C)(C)C)C=N2)C1=O,-2.17
C-2178,"2,3',4,5-tetrachlorodiphenyl  ether",QDQGECFQVPRMEO-UHFFFAOYSA-N,ClC1=CC=CC(=C1)OC2=CC(=C(Cl)C=C2Cl)Cl,-7.27
C-2179,"2,4,4',6-tetrachlorodiphenyl  ether",YCWRSOTXXJYCKF-UHFFFAOYSA-N,ClC1=CC=C(OC2=C(Cl)C=C(Cl)C=C2Cl)C=C1,-6.83
C-2180,n-(3'-nitrophenyl)anthranilic  acid;  3'-nitrofenamic acid,NBJRFLIUYUFOIR-UHFFFAOYSA-N,OC(=O)C1=CC=CC=C1NC2=CC(=CC=C2)[N+]([O-])=O,-6.43
C-2181,"2,3,3',4-tetrachlorodiphenyl  ether",IZISEKJPNSBPRX-UHFFFAOYSA-N,ClC1=CC=CC(=C1)OC2=CC=C(Cl)C(=C2Cl)Cl,-7.09
C-2182,"2,2',4,5'-tetrachlorodiphenyl  ether",XIXPEFLLHQAIOY-UHFFFAOYSA-N,ClC1=CC=C(OC2=C(Cl)C=CC(=C2)Cl)C(=C1)Cl,-6.77
C-2184,7-(propoxycarbonyl)theophylline,QIBCKFKIAKARGI-UHFFFAOYSA-N,CCCOC(=O)[N]1C=NC2=C1C(=O)N(C)C(=O)N2C,-1.45
C-2185,"2,3',4',6-tetrachlorodiphenyl  ether",IZZULMOBRTYHMH-UHFFFAOYSA-N,ClC1=C(Cl)C=C(OC2=C(Cl)C=CC=C2Cl)C=C1,-6.56
C-2186,"2,2',3,4'-tetrachlorodiphenyl  ether",UYVBJPIPRAJEKW-UHFFFAOYSA-N,ClC1=CC(=C(OC2=CC=CC(=C2Cl)Cl)C=C1)Cl,-6.65
C-2187,"1,4-dimethyl-2-propyl-1,2,3,4-tetrahydro-2,4a,9-triazaanthracen-10-one",CRLNRRULCQXUML-UHFFFAOYSA-N,CCCN1CC(C)N2C(=O)C3=C(C=CC=C3)N=C2C1C,-2.24
C-2188,"2,3,4',6-tetrachlorodiphenyl  ether",HJCNTJIMUWQMSA-UHFFFAOYSA-N,ClC1=CC=C(OC2=C(Cl)C=CC(=C2Cl)Cl)C=C1,-6.64
C-2190,"3-(aziridin-1-yl)-4,6-dinitro-n-(tert-butyl)benzamide",NJDKQHDDTBKDER-UHFFFAOYSA-N,CC(C)(C)NC(=O)C1=CC(=C(C=C1[N+]([O-])=O)[N+]([O-])=O)N2CC2,-3.17
C-2191,7-(butyryloxymethyl)theophylline;  7-(butanoyloxymethyl)theophylline,BCXKOIICQXXQJZ-UHFFFAOYSA-N,CCCC(=O)OC[N]1C=NC2=C1C(=O)N(C)C(=O)N2C,-1.86
C-2192,"2,2',4,5-tetrachlorodiphenyl  ether",DRVAMLZVBNYSQE-UHFFFAOYSA-N,ClC1=C(OC2=CC(=C(Cl)C=C2Cl)Cl)C=CC=C1,-7
C-2193,"3,5-diiodotyrosine",NYPYHUZRZVSYKL-UHFFFAOYSA-N,NC(CC1=CC(=C(O)C(=C1)I)I)C(O)=O,-2.86
C-2194,"2,2',3,4-tetrachlorodiphenyl  ether",VTTDWGUAWMLHPR-UHFFFAOYSA-N,ClC1=CC=C(OC2=C(Cl)C=CC=C2)C(=C1Cl)Cl,-6.74
C-2195,1-(2-methylmorpholin-4-yl)sulfonyl-3-(6-bicyclo[2.2.1]-2-heptenylmethyl)urea,FKKUGJURZVYUBG-UHFFFAOYSA-N,CC1CN(CCO1)[S](=O)(=O)NC(=O)NCC2CC3CC2C=C3,-2.26
C-2196,"2,3,4,5-tetrachlorodiphenyl  ether",QAPPZLVGIXQUJW-UHFFFAOYSA-N,ClC1=C(Cl)C(=C(Cl)C(=C1)OC2=CC=CC=C2)Cl,-7.52
C-2197,"3-(aziridin-1-yl)-4,6-dinitro-n,n-(diethyl)benzamide",OTDNTVFTLSWXLS-UHFFFAOYSA-N,CCN(CC)C(=O)C1=CC(=C(C=C1[N+]([O-])=O)[N+]([O-])=O)N2CC2,-2.59
C-2199,(+)-pancratistatin,VREZDOWOLGNDPW-UHFFFAOYSA-N,OC1C(O)C(O)C2C(NC(=O)C3=C(O)C4=C(OCO4)C=C23)C1O,-3.8
C-2200,"2,3,4,6-tetrachlorodiphenyl  ether",WJZPRRFFZWVZJL-UHFFFAOYSA-N,ClC1=C(Cl)C(=C(OC2=CC=CC=C2)C(=C1)Cl)Cl,-7.06
C-2201,flumequine,DPSPPJIUMHPXMA-UHFFFAOYSA-N,CC1CCC2=CC(=CC3=C2N1C=C(C(O)=O)C3=O)F,-3.74
C-2202,"2,3,5,6-tetrachlorodiphenyl  ether",UFGXCDQXRUFDMA-UHFFFAOYSA-N,ClC1=C(Cl)C(=C(Cl)C(=C1)Cl)OC2=CC=CC=C2,-7.02
C-2204,7-(butoxycarbonyl)theophylline,NVWQRLZUBQMAOX-UHFFFAOYSA-N,CCCCOC(=O)[N]1C=NC2=C1C(=O)N(C)C(=O)N2C,-1.93
C-2205,7-(pentanoyloxymethyl)theophylline,YWTLHUJMKYJQNI-UHFFFAOYSA-N,CCCCC(=O)OC[N]1C=NC2=C1C(=O)N(C)C(=O)N2C,-2.37
C-2206,"5-creatinylamido-2-sulfamoyl-1,3,4-thiadiazole",UGKZABQBFUBOFG-UHFFFAOYSA-N,CN(CC(=O)NC1=NN=C(S1)[S](N)(=O)=O)C(N)=N,-1.14
C-2208,chlorzoxazone-n-methyl hemisuccinate,IRAKAHJFDQRYNL-UHFFFAOYSA-N,OC(=O)CCC(=O)OCN1C(=O)OC2=CC=C(Cl)C=C12,-3.41
C-2211,cinchoninone,AEFOLTVWSRMXMW-UHFFFAOYSA-N,C=CC1CN2CCC1CC2C(=O)C3=CC=NC4=C3C=CC=C4,-3.19
C-2212,"1-[3-(aziridin-1-yl)-4,6-dinitrobenzoyl]piperidine",DFFPUVDMNIWTAL-UHFFFAOYSA-N,[O-][N+](=O)C1=C(C=C(C(=O)N2CCCCC2)C(=C1)[N+]([O-])=O)N3CC3,-3.17
C-2215,"8,9,10,11-tetrahydro-7-methyl-1,2-benzanthracene; 8,9,10,11-tetrahydro-7-methyl-benz[a]anthracene",XGQBUGNCZRJKJR-UHFFFAOYSA-N,CC1=C2C=CC3=C(C=CC=C3)C2=CC4=C1CCCC4,-6.75
C-2217,7-(hexanoyloxymethyl)theophylline,UXSMYWBTLMYEGK-UHFFFAOYSA-N,CCCCCC(=O)OC[N]1C=NC2=C1C(=O)N(C)C(=O)N2C,-2.64
C-2218,6-acetyloxymethylthio-9-acetyloxymethylpurine,BGNHXVMZTVHITP-UHFFFAOYSA-N,CC(=O)OCSC1=NC=NC2=C1N=C[N]2COC(C)=O,-2.54
C-2220,"n-[3-(aziridin-1-yl)-4,6-dinitrobenzoyl]morpholine",LUZNBBPGOHLPBY-UHFFFAOYSA-N,[O-][N+](=O)C1=C(C=C(C(=O)N2CCOCC2)C(=C1)[N+]([O-])=O)N3CC3,-2.89
C-2224,"2-sulfamoyl-4-methyl-5-mesylimido-1,3,4-thiadiazoline;  nr.29",RNJWMMREPOUHCP-UHFFFAOYSA-N,CN1N=C(SC1=N[S](C)(=O)=O)[S](N)(=O)=O,-2.05
C-2230,"2,2',3,3',5-pentachlorobiphenyl",SUBRHHYLRGOTHL-UHFFFAOYSA-N,ClC1=CC(=C(Cl)C(=C1)C2=C(Cl)C(=CC=C2)Cl)Cl,-6.96
C-2235,"1,3-dipropyl-8-cyclopentylxanthine",FFBDFADSZUINTG-UHFFFAOYSA-N,CCCN1C(=O)N(CCC)C2=C([NH]C(=N2)C3CCCC3)C1=O,-4.96
C-2236,"tolcapone;  3,4-dihydroxy-4'-methyl-5-nitrobenzophenone",MIQPIUSUKVNLNT-UHFFFAOYSA-N,CC1=CC=C(C=C1)C(=O)C2=CC(=C(O)C(=C2)O)[N+]([O-])=O,-4.17
C-2238,"sulfatroxazole;  4,5-dimethyl-3-sulfaisoxazole",DAUFGBIKKGOPJA-UHFFFAOYSA-N,CC1=C(C)C(=NO1)N[S](=O)(=O)C2=CC=C(N)C=C2,-2.19
C-2239,proxicromil analog ii;  deshydroxyproxicromil,DLKZWVIRKURGIR-UHFFFAOYSA-N,CCCC1=C2CCCCC2=CC3=C1OC(=CC3=O)C(O)=O,-1.9
C-2240,3-(hydroxymethyl)phenytoin,QQBKLRXLVRDKEB-UHFFFAOYSA-N,OCN1C(=O)NC(C1=O)(C2=CC=CC=C2)C3=CC=CC=C3,-3.3
C-2241,7-(hexyloxycarbonyl)theophylline,UORJFFDRYWJWQH-UHFFFAOYSA-N,CCCCCCOC(=O)[N]1C=NC2=C1C(=O)N(C)C(=O)N2C,-3
C-2243,"3,3',4,4',5-pentachlorodiphenyl  ether",WDBLKMRZRGLISL-UHFFFAOYSA-N,ClC1=CC=C(OC2=CC(=C(Cl)C(=C2)Cl)Cl)C=C1Cl,-8.25
C-2244,norethindrone benzoate,XIWMRZUMWWBVKW-UHFFFAOYSA-N,CC12CCC3C(CCC4=CC(=O)CCC34)C1CCC2(OC(=O)C5=CC=CC=C5)C#C,-7.75
C-2245,"2,3',4,4',5-pentachlorodiphenyl  ether",NRAVUGAGYOBXIG-UHFFFAOYSA-N,ClC1=CC=C(OC2=C(Cl)C=C(Cl)C(=C2)Cl)C=C1Cl,-7.83
C-2246,methylprednisolone-21-hemisuccinate,IMBXEJJVJRTNOW-UHFFFAOYSA-N,CC1CC2C3CCC(O)(C(=O)COC(=O)CCC(O)=O)C3(C)CC(O)C2C4(C)C=CC(=O)C=C14,-4.2
C-2247,"2',3,4,4',5-pentachlorodiphenyl  ether",BUAXMSGDEZZOJD-UHFFFAOYSA-N,ClC1=CC=C(OC2=CC(=C(Cl)C(=C2)Cl)Cl)C(=C1)Cl,-7.89
C-2248,1-benzoylallopurinol,OEYHHMLIRPBEEB-UHFFFAOYSA-N,O=C1NC=NC2=C1C=N[N]2C(=O)C3=CC=CC=C3,-4.23
C-2249,"2,4'-ddt",CVUGPAFCQJIYDT-UHFFFAOYSA-N,ClC1=CC=C(C=C1)C(C2=C(Cl)C=CC=C2)C(Cl)(Cl)Cl,-7.13
C-2250,"2,3',4,5,5'-pentachlorodiphenyl  ether",XIFRTJZLSYOLIU-UHFFFAOYSA-N,ClC1=CC(=CC(=C1)Cl)OC2=C(Cl)C=C(Cl)C(=C2)Cl,-8.06
C-2251,"2,3,3',4',5-pentachlorodiphenyl  ether",ZVFHTYGIYIXYOJ-UHFFFAOYSA-N,ClC1=CC(=C(Cl)C(=C1)Cl)OC2=CC=C(Cl)C(=C2)Cl,-7.83
C-2252,"2,2',4,4',5-pentachlorodiphenyl  ether",AVURWLKSFZBANQ-UHFFFAOYSA-N,ClC1=CC=C(OC2=C(Cl)C=C(Cl)C(=C2)Cl)C(=C1)Cl,-7.61
C-2253,"2,3,3',4,5'-pentachlorodiphenyl  ether",HCTKORQPUZCIAO-UHFFFAOYSA-N,ClC1=CC(=CC(=C1)Cl)OC2=C(Cl)C(=C(Cl)C=C2)Cl,-7.86
C-2254,"2,3,4,4',5-pentachlorodiphenyl  ether",WSTVMACYLXUQIM-UHFFFAOYSA-N,ClC1=CC=C(OC2=C(Cl)C(=C(Cl)C(=C2)Cl)Cl)C=C1,-8.06
C-2255,"2,3',4,4',6-pentachlorodiphenyl  ether",POOXVKSDWCXIBU-UHFFFAOYSA-N,ClC1=CC(=C(OC2=CC=C(Cl)C(=C2)Cl)C(=C1)Cl)Cl,-7.62
C-2257,4-sulfapyrimidin-2-one,VCOUXVOVQPWIOT-UHFFFAOYSA-N,NC1=CC=C(C=C1)[S](=O)(=O)NC2=NC(=O)NC=C2,-3.55
C-2258,"2,2',3,4,4'-pentachlorodiphenyl  ether",RSBUDFTVQYJNHK-UHFFFAOYSA-N,ClC1=CC=C(OC2=C(Cl)C(=C(Cl)C=C2)Cl)C(=C1)Cl,-7.44
C-2259,"2,2',4,5,5'-pentachlorodiphenyl  ether",MKIAKZAWONVRFF-UHFFFAOYSA-N,ClC1=CC=C(Cl)C(=C1)OC2=C(Cl)C=C(Cl)C(=C2)Cl,-7.56
C-2260,"2,2',3,4',5-pentachlorodiphenyl  ether",QPEBRZQSEUOWPA-UHFFFAOYSA-N,ClC1=CC=C(OC2=C(Cl)C(=CC(=C2)Cl)Cl)C(=C1)Cl,-7.64
C-2261,"2,3,3',4',6-pentachlorodiphenyl  ether",KASGFDPQAMDPAZ-UHFFFAOYSA-N,ClC1=CC=C(OC2=C(Cl)C(=CC=C2Cl)Cl)C=C1Cl,-7.35
C-2262,"2,3,4,4',6-pentachlorodiphenyl  ether",LUNNFBBTEHRYMW-UHFFFAOYSA-N,ClC1=CC=C(OC2=C(Cl)C(=C(Cl)C=C2Cl)Cl)C=C1,-7.77
C-2263,theophyllin-7-ylmethyl octanoate;  7-(octanoyloxymethyl)theophylline,GZVOWHYYFUOPAE-UHFFFAOYSA-N,CCCCCCCC(=O)OC[N]1C=NC2=C1C(=O)N(C)C(=O)N2C,-3.45
C-2264,"2,2',4,4',6-pentachlorodiphenyl  ether",FONWDRSQXQZNBN-UHFFFAOYSA-N,ClC1=CC=C(OC2=C(Cl)C=C(Cl)C=C2Cl)C(=C1)Cl,-7.33
C-2265,"2,2',3',4,5-pentachlorodiphenyl  ether",ABYZYVAIOYICJQ-UHFFFAOYSA-N,ClC1=C(Cl)C(=CC=C1)OC2=C(Cl)C=C(Cl)C(=C2)Cl,-7.48
C-2266,"2,2',3,4,5'-pentachlorodiphenyl  ether",SCLCXTQIVCULDR-UHFFFAOYSA-N,ClC1=CC=C(Cl)C(=C1)OC2=C(Cl)C(=C(Cl)C=C2)Cl,-7.7
C-2267,"amicarbalide;  n,n'-di(3-amidinophenyl)urea",KRUVSRGJKCHYMY-UHFFFAOYSA-N,NC(=N)C1=CC(=CC=C1)NC(=O)NC2=CC(=CC=C2)C(N)=N,-1.77
C-2268,"2,2',3,3',4-pentachlorodiphenyl  ether",ABRDPORILGADAP-UHFFFAOYSA-N,ClC1=C(Cl)C(=CC=C1)OC2=C(Cl)C(=C(Cl)C=C2)Cl,-7.38
C-2269,"2,3,4',5,6-pentachlorodiphenyl  ether",UETIKWAWMZLQQZ-UHFFFAOYSA-N,ClC1=CC=C(OC2=C(Cl)C(=CC(=C2Cl)Cl)Cl)C=C1,-7.76
C-2270,tetcyclacis,DPOWHSMECVNHAT-UHFFFAOYSA-N,ClC1=CC=C(C=C1)N2N=NC3C4CC(C5N=NC45)C23,-4.87
C-2271,"2,2',3,4',6-pentachlorodiphenyl  ether",BRNKJDZWZYZVNM-UHFFFAOYSA-N,ClC1=CC=C(OC2=C(Cl)C(=CC=C2Cl)Cl)C(=C1)Cl,-7.24
C-2272,"2,2',4,5,6'-pentachlorodiphenyl  ether",BOJBTUWEQMUWHT-UHFFFAOYSA-N,ClC1=CC=CC(=C1OC2=C(Cl)C=C(Cl)C(=C2)Cl)Cl,-7.12
C-2273,"2,2',3,4,6'-pentachlorodiphenyl  ether",JGXAONSRHOSPTJ-UHFFFAOYSA-N,ClC1=C(Cl)C(=C(OC2=C(Cl)C=CC=C2Cl)C=C1)Cl,-7.23
C-2274,naproxen 2-(2-aminoacetoxy)ethyl ester,SZSNDQZFLGGEBX-UHFFFAOYSA-N,COC1=CC=C2C=C(C=CC2=C1)C(C)C(=O)OCCOC(=O)CN,-1.98
C-2275,"2-sulfamoyl-5-(n,n-dimethylsulfamoylamido)-1,3,4-thiadiazole",OXCKOUMFAKPIEL-UHFFFAOYSA-N,CN(C)[S](=O)(=O)NC1=NN=C(S1)[S](N)(=O)=O,-2.68
C-2276,"2,3,4,5,6-pentachlorodiphenyl  ether",JDWOFUWJURZFFF-UHFFFAOYSA-N,ClC1=C(Cl)C(=C(OC2=CC=CC=C2)C(=C1Cl)Cl)Cl,-7.94
C-2277,"s6,9-bis(propanoyloxymethyl)-6-mercaptopurine",CTMFEUPSVOSORU-UHFFFAOYSA-N,CCC(=O)OCSC1=NC=NC2=C1N=C[N]2COC(=O)CC,-2.78
C-2279,"diclofop;  (rs)-2-[4-(2,4-dichlorophenoxy)phenoxy]propanoic acid",OOLBCHYXZDXLDS-UHFFFAOYSA-N,CC(OC1=CC=C(OC2=C(Cl)C=C(Cl)C=C2)C=C1)C(O)=O,-5.04
C-2282,carprofen;  6-chloro-alpha-methyl-9h-carbazole-2-acetic acid,PUXBGTOOZJQSKH-UHFFFAOYSA-N,CC(C(O)=O)C1=CC2=C(C=C1)C3=C([NH]2)C=CC(=C3)Cl,-4.7
C-2285,naproxen 1-(2-aminoacetoxy)ethyl ester,WVZTUUIUEUVJGM-UHFFFAOYSA-N,COC1=CC=C2C=C(C=CC2=C1)C(C)C(=O)OC(C)OC(=O)CN,-2.44
C-2286,"danthron;  1,8-dihydroxyanthraquinone",QBPFLULOKWLNNW-UHFFFAOYSA-N,OC1=CC=CC2=C1C(=O)C3=C(C=CC=C3O)C2=O,-5.19
C-2287,1-methyl-4-sulfapyrimidin-2-one,QOPHKHWJLOYIDO-UHFFFAOYSA-N,CN1C=CC(=NC1=O)N[S](=O)(=O)C2=CC=C(N)C=C2,-2.36
C-2290,acetic acid 4-(4-acetylaminobenzoylamino)phenyl ester,MGJXRNWWFDAVMQ-UHFFFAOYSA-N,CC(=O)NC1=CC=C(C=C1)C(=O)NC2=CC=C(OC(C)=O)C=C2,-4.41
C-2291,8-phenyltheophylline,PJFMAVHETLRJHJ-UHFFFAOYSA-N,CN1C(=O)N(C)C2=C([NH]C(=N2)C3=CC=CC=C3)C1=O,-5
C-2292,"1,3-dipropyl-8-dicyclopropylmethylxanthine",OEPXIQLEKWHAGE-UHFFFAOYSA-N,CCCN1C(=O)N(CCC)C2=C([NH]C(=N2)C(C3CC3)C4CC4)C1=O,-4.59
C-2293,proxicromil,VFFTVZUIDYJUQS-UHFFFAOYSA-N,CCCC1=C2OC(=CC(=O)C2=C(O)C3=C1CCCC3)C(O)=O,-2.68
C-2294,ampicillin,AVKUERGKIZMTKX-UHFFFAOYSA-N,CC1(C)SC2C(NC(=O)C(N)C3=CC=CC=C3)C(=O)N2C1C(O)=O,-1.99
C-2295,dexclamol,UPMOVJBGNREKJV-UHFFFAOYSA-N,CC(C)C1(O)CCN2CC3C4=C(CCC5=C3C(=CC=C5)C2C1)C=CC=C4,-3.81
C-2296,pimaricin;  natamycin,NCXMLFZGDNKEPB-YLTFDBFKSA-N,CC1C\C=C\C=C\C=C\C=C\C(CC2OC(O)(CC(O)CC3OC3/C=C/C(=O)O1)CC(O)C2C([O-])=O)OC4OC(C)C(O)C([NH3+])C4O,-2.21
C-2297,norfloxacin,OGJPXUAPXNRGGI-UHFFFAOYSA-N,CCN1C=C(C(O)=O)C(=O)C2=C1C=C(N3CCNCC3)C(=C2)F,-2.76
C-2298,"s6,9-bis(butanoyloxymethyl)-6-mercaptopurine; 9-(butanoyloxymethyl)-6-(butanoyloxymethylthio)purine",SFXAJOVEEUKUPY-UHFFFAOYSA-N,CCCC(=O)OCSC1=NC=NC2=C1N=C[N]2COC(=O)CCC,-3.71
C-2299,cephalexin,ZAIPMKNFIOOWCQ-UHFFFAOYSA-N,CC1=C(N2C(SC1)C(NC(=O)C(N)C3=CC=CC=C3)C2=O)C(O)=O,-1.58
C-2300,n4-acetylsulfadiazine,NJIZUWGMNCUKGU-UHFFFAOYSA-N,CC(=O)NC1=CC=C(C=C1)[S](=O)(=O)NC2=NC=CC=N2,-3.59
C-2302,"1,3-dipropyl-8-(3-oxocyclopentyl)xanthine",RUHGOZFOVBMWOO-UHFFFAOYSA-N,CCCN1C(=O)N(CCC)C2=C([NH]C(=N2)C3CCC(=O)C3)C1=O,-3.16