ID,Name,InChIKey,SMILES,Solubility
C-2504,norethindrone  4-phenoxybenzoate,NOLFOVJQJONDCP-UHFFFAOYSA-N,CC12CCC3C(CCC4=CC(=O)CCC34)C1CCC2(OC(=O)C5=CC=C(OC6=CC=CC=C6)C=C5)C#C,-6.84
C-2505,"2-sulfamoyl-4-methyl-5-(4-anisylsulfonylimido)-1,3,4-thiadiazoline; 5-(4-methoxybenzenesulfonylimido)-4-methyl-delta2-1,3,4-thiadiazoline-2-sulfonamide",GXFOJGQBUWNOTA-UHFFFAOYSA-N,COC1=CC=C(C=C1)[S](=O)(=O)N=C2SC(=NN2C)[S](N)(=O)=O,-2.76
C-2506,"2-sulfamoyl-5-(4-nitrobenzenesulfonamido)-1,3,4-thiadiazole",UZKSIVGPWQRGOU-UHFFFAOYSA-N,N[S](=O)(=O)C1=NN=C(N[S](=O)(=O)C2=CC=C(C=C2)[N+]([O-])=O)S1,-1.33
C-2507,"2,3-dichloro-4,6-disulfamoyl-1-glycylglycylamidobenzene",NFGGAIZJSZLPOX-UHFFFAOYSA-N,NCC(=O)NCC(=O)NC1=C(Cl)C(=C(C=C1[S](N)(=O)=O)[S](N)(=O)=O)Cl,-1.23
C-2508,minocycline,DYKFCLLONBREIL-UHFFFAOYSA-N,CN(C)C1C2CC3CC4=C(C=CC(=C4C(=O)C3=C(O)C2(O)C(=O)C(=C1O)C(N)=O)O)N(C)C,-0.94
C-2509,"2-sulfamoyl-5-(3-nitrobenzenesulfonamido)-1,3,4-thiadiazole",MPMQAYYQEKNVDO-UHFFFAOYSA-N,N[S](=O)(=O)C1=NN=C(N[S](=O)(=O)C2=CC(=CC=C2)[N+]([O-])=O)S1,-1.46
C-2510,2-isopropylphenyl  2'-nitro-4'-[(4''-acetylpiperazin-1''-yl)acryloyl]phenyl  sulfide,HTGGAYLWTDOFDK-PKNBQFBNSA-N,CC(C)C1=C(SC2=C(C=C(\C=C\C(=O)N3CCN(CC3)C(C)=O)C=C2)[N+]([O-])=O)C=CC=C1,-2.7
C-2512,"5-(2-carboxybenzenesulfonamido)-1,3,4-thiadiazole-2-sulfonamide",ZRVCCBYKHVNUIP-UHFFFAOYSA-N,N[S](=O)(=O)C1=NN=C(N[S](=O)(=O)C2=C(C=CC=C2)C(O)=O)S1,-2.32
C-2513,"5-(4-acetylaminobenzenesulfonamido)-1,3,4-thiadiazole-2-sulfonamide",NQSAAPCTPUNSPD-UHFFFAOYSA-N,CC(=O)NC1=CC=C(C=C1)[S](=O)(=O)NC2=NN=C(S2)[S](N)(=O)=O,-1.62
C-2514,"2-sulfamoyl-5-(2-nitrobenzenesulfonamido)-1,3,4-thiadiazole",CTLJHLYIILERNX-UHFFFAOYSA-N,N[S](=O)(=O)C1=NN=C(N[S](=O)(=O)C2=C(C=CC=C2)[N+]([O-])=O)S1,-1.82
C-2515,2-chloro-4-[(4'-acetylpiperazin-1'-yl)carbonyl)ethenyl]phenyl  indol-5''-yl  sulfide,SWIQOJQBTDWCRB-XVNBXDOJSA-N,CC(=O)N1CCN(CC1)C(=O)/C=C/C2=CC(=C(SC3=CC4=C([NH]C=C4)C=C3)C=C2)Cl,-2.74
C-2516,"2-sulfamoyl-5-(2,4,6-trimethylbenzenesulfonylimido)-4-methyl-1,3,4-thiadiazoline",QSVMFFQOVYIPQM-UHFFFAOYSA-N,CN1N=C(SC1=N[S](=O)(=O)C2=C(C)C=C(C)C=C2C)[S](N)(=O)=O,-3
C-2517,nicosulfuron,RTCOGUMHFFWOJV-UHFFFAOYSA-N,COC1=NC(=NC(=C1)OC)NC(=O)N[S](=O)(=O)C2=NC=CC=C2C(=O)N(C)C,-3.97
C-2520,"2-sulfamoyl-5-(4-iodobenzenesulfonamido)-1,3,4-thiadiazole",NIRNPVHJRLYNLW-UHFFFAOYSA-N,N[S](=O)(=O)C1=NN=C(N[S](=O)(=O)C2=CC=C(I)C=C2)S1,-2.2
C-2521,diltiazem,HSUGRBWQSSZJOP-UHFFFAOYSA-N,COC1=CC=C(C=C1)C2SC3=CC=CC=C3N(CCN(C)C)C(=O)C2OC(C)=O,-2.95
C-2522,"5-(4-bromobenzenesulfonylimido)-4-methyl-2-sulfonamido-delta2-1,3,4-thiadiazoline",OOQVFGGUMHVRKM-UHFFFAOYSA-N,CN1N=C(SC1=N[S](=O)(=O)C2=CC=C(Br)C=C2)[S](N)(=O)=O,-2.51
C-2523,"dpx-m6316;  methyl  3-(4',6'-dimethoxy-1',3',5'-triazin-2'-yl)ureidosulfonylthiophene-2-carboxylate",KMTDLXVYRNAWSN-UHFFFAOYSA-N,COC(=O)C1=C(C=CS1)[S](=O)(=O)NC(=O)NC2=NC(=NC(=N2)OC)OC,-3.19
C-2525,flavopiridol,BIIVYFLTOXDAOV-UHFFFAOYSA-N,CN1CCC(C(O)C1)C2=C(O)C=C(O)C3=C2OC(=CC3=O)C4=C(Cl)C=CC=C4,-4.26
C-2526,flutrimazole,QHMWCHQXCUNUAK-UHFFFAOYSA-N,FC1=CC=C(C=C1)C([N]2C=CN=C2)(C3=CC=CC=C3)C4=C(F)C=CC=C4,-8.4
C-2527,tenoxicam,LZNWYQJJBLGYLT-UHFFFAOYSA-N,CN1C(=C(O)C2=C(C=CS2)[S]1(=O)=O)C(=O)NC3=NC=CC=C3,-3.88
C-2528,"n1-(2-sulfamoyl-1,3,4-thiadiazol-5-yl)-n4-(glycyl)sulfanilamide",MIWUDGNQEWPLJX-UHFFFAOYSA-N,NCC(=O)NC1=CC=C(C=C1)[S](=O)(=O)NC2=NN=C(S2)[S](N)(=O)=O,-1.19
C-2529,"4-methyl-5-(4-nitrobenzenesulfonylimido)-delta2-1,3,4-thiadiazoline-2-sulfonamide",NJBKUDDWNAXHHT-UHFFFAOYSA-N,CN1N=C(SC1=N[S](=O)(=O)C2=CC=C(C=C2)[N+]([O-])=O)[S](N)(=O)=O,-2.7
C-2530,"4-methyl-5-(3-nitrobenzenesulfonylimido)-delta2-1,3,4-thiadiazoline-2-sulfonamide",BODJFESIQMWAAQ-UHFFFAOYSA-N,CN1N=C(SC1=N[S](=O)(=O)C2=CC=CC(=C2)[N+]([O-])=O)[S](N)(=O)=O,-2.67
C-2531,difloxacin,NOCJXYPHIIZEHN-UHFFFAOYSA-N,CN1CCN(CC1)C2=CC3=C(C=C2F)C(=O)C(=CN3C4=CC=C(F)C=C4)C(O)=O,-3.82
C-2532,brinzolamide,HCRKCZRJWPKOAR-UHFFFAOYSA-N,CCNC1CN(CCCOC)[S](=O)(=O)C2=C1C=C(S2)[S](N)(=O)=O,-2.95
C-2534,"2-sulfamoyl-4-methyl-5-(4-acetamidobenzenesulfonylimido)-1,3,4-thiadiazoline; 5-(4-acetylaminobenzenesulfonylimido)-4-methyl-delta2-1,3,4-thiadiazoline-2-sulfonamide",COYOSRWVLQSZNN-UHFFFAOYSA-N,CN1N=C(SC1=N[S](=O)(=O)C2=CC=C(NC(C)=O)C=C2)[S](N)(=O)=O,-1.69