ID,Name,InChIKey,SMILES,Solubility
A-2382,"N,N-dimethyldodecan-1-amine",YWFWDNVOPHGWMX-UHFFFAOYSA-N,CCCCCCCCCCCCN(C)C,-4.4261227438
A-2384,"tetrasodium 5-({4-chloro-6-[ethyl(phenyl)amino]-1,3,5-triazin-2-yl}amino)-3-[(E)-2-(1,5-disulfonatonaphthalen-2-yl)diazen-1-yl]-4-hydroxynaphthalene-2,7-disulfonate",DSVQPTKJDZFKIP-UHFFFAOYSA-J,[Na+].[Na+].[Na+].[Na+].CCN(c1ccccc1)c2nc(Cl)nc(Nc3cc(cc4cc(c(N=Nc5ccc6c(cccc6[S]([O-])(=O)=O)c5[S]([O-])(=O)=O)c(O)c34)[S]([O-])(=O)=O)[S]([O-])(=O)=O)n2,-0.5025263499
A-2385,1-chloro-4-(3-chlorophenoxy)benzene,HPRGYUWRGCTBAV-UHFFFAOYSA-N,Clc1ccc(Oc2cccc(Cl)c2)cc1,-5.3873553168
A-2387,"[2,2-bis(2-ethylhexanoyloxymethyl)-3-[2-(2-ethylhexanoyloxymethyl)-3-(7-methyloctanoyloxy)-2-(7-methyloctanoyloxymethyl)propoxy]propyl] 7-methyloctanoate",ATDCVWYXPQZTCI-UHFFFAOYSA-N,CCCCC(CC)C(=O)OCC(COCC(COC(=O)CCCCCC(C)C)(COC(=O)C(CC)CCCC)COC(=O)C(CC)CCCC)(COC(=O)CCCCCC(C)C)COC(=O)CCCCCC(C)C,-7.323686796
A-2388,"2-hydroxypropanoic acid; 5-({bis[(2-aminopropyl)amino]-1,3,5-triazin-2-yl}amino)-3-{2-[4-({4-[(4-{2-[8-({bis[(2-aminopropyl)amino]-1,3,5-triazin-2-yl}amino)-1-hydroxy-3,6-disulfonaphthalen-2-yl]diazen-1-yl}phenyl)amino]-6-{[3-(diethylamino)propyl]amino}-1,3,5-triazin-2-yl}amino)phenyl]diazen-1-yl}-4-hydroxynaphthalene-2,7-disulfonic acid",PQKUZJNOANDNSP-UHFFFAOYSA-N,CCN(CC)CCCNc1nc(Nc2ccc(cc2)N=Nc3c(O)c4c(Nc5nc(NCC(C)N)nc(NCC(C)N)n5)cc(cc4cc3[S](O)(=O)=O)[S](O)(=O)=O)nc(Nc6ccc(cc6)N=Nc7c(O)c8c(Nc9nc(NCC(C)N)nc(NCC(C)N)n9)cc(cc8cc7[S](O)(=O)=O)[S](O)(=O)=O)n1.CC(O)C(O)=O,-0.7942190429
A-2390,ethyl (2S)-5-carbamimidamido-2-dodecanamidopentanoate hydrochloride,CUBZMGWLVMQKNE-LMOVPXPDSA-N,Cl.CCCCCCCCCCCC(=O)N[C@@H](CCCNC(N)=N)C(=O)OCC,-0.2316119628
A-2392,"(1E)-1-(2,6,6-trimethylcyclohex-1-en-1-yl)pent-1-en-3-one; (1E)-1-(2,6,6-trimethylcyclohex-2-en-1-yl)pent-1-en-3-one; (3E)-3-methyl-4-(2,6,6-trimethylcyclohex-1-en-1-yl)but-3-en-2-one; (3E)-3-methyl-4-(2,6,6-trimethylcyclohex-2-en-1-yl)but-3-en-2-one",VPKMGDRERYMTJX-CMDGGOBGSA-N,CCC(=O)/C=C/C1C(=CCCC1(C)C)C,-3.9923409786
A-2393,"(3E)-3-methyl-4-(2,6,6-trimethylcyclohex-2-en-1-yl)but-3-en-2-one",JRJBVWJSTHECJK-LUAWRHEFSA-N,CC(=O)C(\C)=C/C1C(=CCCC1(C)C)C,-3.9923409786
A-2394,"(1R,2S,5R)-5-methyl-2-(propan-2-yl)cyclohexyl acetate",XHXUANMFYXWVNG-ADEWGFFLSA-N,CC(C)[C@@H]1CC[C@@H](C)C[C@H]1OC(C)=O,-3.9751165598
A-2395,3-oxo-N-[4-(3-oxobutanamido)phenyl]butanamide,OWGNKUKYZPVEFS-UHFFFAOYSA-N,CC(=O)CC(=O)Nc1ccc(NC(=O)CC(C)=O)cc1,-3.1275010898
A-2397,[2-(dodecanoyloxy)ethyl]trimethylazanium chloride,BBJUKVPDIPYNBS-UHFFFAOYSA-M,[Cl-].CCCCCCCCCCCC(=O)OCC[N+](C)(C)C,-2.2111003064
A-2401,benzyl benzoate,SESFRYSPDFLNCH-UHFFFAOYSA-N,O=C(OCc1ccccc1)c2ccccc2,-4.1776244939
A-2402,"1,1'-sulfonyldibenzene",KZTYYGOKRVBIMI-UHFFFAOYSA-N,O=[S](=O)(c1ccccc1)c2ccccc2,-4.1928799405
A-2403,1-(morpholin-4-yl)prop-2-en-1-one,XLPJNCYCZORXHG-UHFFFAOYSA-N,C=CC(=O)N1CCOCC1,0.8502575853
A-2404,1-methoxypropan-2-ol,ARXJGSRGQADJSQ-UHFFFAOYSA-N,COCC(C)O,1.0451691789
A-2407,disodium 2-(6-oxido-3-oxo-3H-xanthen-9-yl)benzoate,NJDNXYGOVLYJHP-UHFFFAOYSA-L,[Na+].[Na+].[O-]C(=O)c1ccccc1C2=C3C=CC(=O)C=C3Oc4cc([O-])ccc24,-1.5755053644
A-2409,azanium; molybdenum; oxygen(-2) anion; hydrate,XCOMAVCHADVANQ-UHFFFAOYSA-O,[NH4+].O.[O--].[Mo],-1.170241174
A-2411,2-sulfanylacetic acid,CWERGRDVMFNCDR-UHFFFAOYSA-N,OC(=O)CS,-1.9643492148
A-2412,"7-hydroxy-3,7-dimethyloctanal; 1H-indole",NSBPKSMZAAJTFE-UHFFFAOYSA-N,CC(CCCC(C)(C)O)CC=O.[nH]1ccc2ccccc12,-4.9224509398
A-2413,dioctadecyl (E)-but-2-enedioate,XHSDDKAGJYJAQM-ULDVOPSXSA-N,CCCCCCCCCCCCCCCCCCOC(=O)\C=C\C(=O)OCCCCCCCCCCCCCCCCCC,-7.094152366
A-2414,indium(3+) ion trinitrate,YZZFBYAKINKKFM-UHFFFAOYSA-N,O.[In+3].[O-][N+]([O-])=O.[O-][N+]([O-])=O.[O-][N](=O)=O,-2.5035796109
A-2415,sodium methanethiolate,RMBAVIFYHOYIFM-UHFFFAOYSA-M,[Na+].C[S-],-1.8456684523
A-2417,ethyl 2-[di(phenyl)methylideneamino]acetate,QUGJYNGNUBHTNS-UHFFFAOYSA-N,CCOC(=O)CN=C(c1ccccc1)c2ccccc2,-3.4270444492
A-2418,"3,9-bis(2,6-di-tert-butyl-4-methylphenoxy)-2,4,8,10-tetraoxa-3,9-diphosphaspiro[5.5]undecane",SSADPHQCUURWSW-UHFFFAOYSA-N,Cc1cc(c(OP2OCC3(CO2)COP(OC3)Oc4c(cc(C)cc4C(C)(C)C)C(C)(C)C)c(c1)C(C)(C)C)C(C)(C)C,-7.801238331
A-2419,aluminium(3+) ion phosphate,ILRRQNADMUWWFW-UHFFFAOYSA-K,[Al+3].[O-][P]([O-])([O-])=O,-4.2460828326
A-2420,"1,4-diethyl 2-{[4-({4-[(1,4-diethoxy-1,4-dioxobutan-2-yl)amino]-3-methylcyclohexyl}methyl)-2-methylcyclohexyl]amino}butanedioate",YHVVJCQIMRGPPE-UHFFFAOYSA-N,CCOC(=O)CC(NC1CCC(CC2CCC(NC(CC(=O)OCC)C(=O)OCC)C(C)C2)CC1C)C(=O)OCC,-5.0665338896
A-2421,"N-(carboxymethyl)-3-(dodecanoylamino)-N,N-dimethylpropan-1-aminium hydroxide",MRUAUOIMASANKQ-UHFFFAOYSA-N,CCCCCCCCCCCC(=O)NCCC[N+](C)(C)CC([O-])=O,-3.1367509984
A-2423,2-[2-(dimethylamino)ethoxy]ethan-1-ol,YSAANLSYLSUVHB-UHFFFAOYSA-N,CN(C)CCOCCO,-0.1244748796
A-2424,"4-nitrobenzene-1,3-diamine",DPIZKMGPXNXSGL-UHFFFAOYSA-N,Nc1ccc(c(N)c1)[N+]([O-])=O,-2.1850914787
A-2425,dibutyltin dilaurate,UKLDJPRMSDWDSL-UHFFFAOYSA-L,CCCCCCCCCCCC([O-])=O.CCCCCCCCCCCC([O-])=O.CCCC[Sn++]CCCC,-5.6450861427
A-2428,tetraethylplumbane,MRMOZBOQVYRSEM-UHFFFAOYSA-N,CC[Pb](CC)(CC)CC,-5.4128944571
A-2430,trans-1-(1-oxohexadecyl)-4-[(1-oxohexadecyl)oxy]-L-proline,QZLXCFQVOCEKSX-NOCHOARKSA-N,CCCCCCCCCCCCCCCC(=O)O[C@@H]1C[C@H](N(C1)C(=O)CCCCCCCCCCCCCCC)C(O)=O,-5.7838757207
A-2433,cerium(3+) ion trifluoride,QCCDYNYSHILRDG-UHFFFAOYSA-K,[F-].[F-].[F-].[Ce+3],-5.8633448938
A-2434,triphenylphosphane,RIOQSEWOXXDEQQ-UHFFFAOYSA-N,c1ccc(cc1)P(c2ccccc2)c3ccccc3,-6.2013011004
A-2436,"3,7-dimethylocta-1,6-diene",FUDNBFMOXDUIIE-UHFFFAOYSA-N,CC(CCC=C(C)C)C=C,-5.9645864462
A-2437,"2,2-bis(hydroxymethyl)propane-1,3-diol; decanoic acid; heptanoic acid; octanoic acid; pentanoic acid",ZIRMEZKEFPNOEV-UHFFFAOYSA-N,CCCCCCCCCC(O)=O.CCCCCCCC(O)=O.CCCCCCC(O)=O.CCCCC(O)=O.OCC(CO)(CO)CO,-7.5346282403
A-2438,2-ethylhexyl 2-({2-[(2-ethylhexyl)oxy]-2-oxoethyl}sulfanyl)acetate,KYWZILPIDASSGE-UHFFFAOYSA-N,CCCCC(CC)COC(=O)CSCC(=O)OCC(CC)CCCC,-6.6549981706
A-2442,"2-(4-methylpent-3-enyl)anthracene-9,10-dione",NQVBCGTZRWHVSY-UHFFFAOYSA-N,CC(C)=CCCc1ccc2C(=O)c3ccccc3C(=O)c2c1,-7.9858185244
A-2443,"O1-nonyl O2-octyl benzene-1,2-dicarboxylate",ZKHMKHBSASMXEZ-UHFFFAOYSA-N,CCCCCCCCCOC(=O)c1ccccc1C(=O)OCCCCCCCC,-4.7809414151
A-2444,lithium docosanoate,SDIIFPDBZMCCLQ-UHFFFAOYSA-M,[Li+].CCCCCCCCCCCCCCCCCCCCCC([O-])=O,-6.8769767405
A-2445,lithium myristate,KJSPVJJOPONRTK-UHFFFAOYSA-M,[Li+].CCCCCCCCCCCCCC([O-])=O,-6.7070311388
A-2446,lithium octadec-9-enoate,AVOVSJYQRZMDQJ-KVVVOXFISA-M,[Li+].CCCCCCCC\C=C/CCCCCCCC([O-])=O,-6.7972389302
A-2447,lithium(1+) ion 12-hydroxyoctadecanoate,FPLIHVCWSXLMPX-UHFFFAOYSA-M,[Li+].CCCCCCC(O)CCCCCCCCCCC([O-])=O,-6.8235536072
A-2448,methanidylidyneoxidanium triphenylphosphane (2Z)-4-oxopent-2-en-2-olate rhodium,ZETXURAVPSJSPU-UHFFFAOYSA-N,[Rh].CC(=O)[CH-]C(C)=O.[C-]#[O+].c1ccc(cc1)P(c2ccccc2)c3ccccc3,-7.3120335908
A-2450,3-[3-(9-methyldecoxy)propylamino]propanenitrile,JWIXWVDMADJVJP-UHFFFAOYSA-N,CC(C)CCCCCCCCOCCCNCCC#N,-3.6184664922
A-2451,[(1S)-3-(4-methylpent-3-enyl)-1-cyclohex-3-enyl]methyl acetate,IIUKCYITROTKFB-HNNXBMFYSA-N,CC(=O)OC[C@H]1CCC=C(CCC=C(C)C)C1,-4.9756247854
A-2453,"2-acetyl-4-({4-[(3-acetyl-4-amino-9,10-dioxo-9,10-dihydroanthracen-1-yl)amino]-6-phenyl-1,3,5-triazin-2-yl}amino)-1-amino-9,10-dihydroanthracene-9,10-dione",QHUKBYLVVVMGRT-UHFFFAOYSA-N,CC(=O)c1cc(Nc2nc(Nc3cc(C(C)=O)c(N)c4C(=O)c5ccccc5C(=O)c34)nc(n2)c6ccccc6)c7C(=O)c8ccccc8C(=O)c7c1N,-4.9504317948
A-2455,"Glycerides, C16-22",QHZLMUACJMDIAE-UHFFFAOYSA-N,CCCCCCCCCCCCCCCC(=O)OCC(O)CO,-4.7267916006
A-2456,"A mixture of: bis(2,2,6,6-tetramethyl-1-octyloxypiperidin-4-yl)-1,10-decanedioate; 1,8-bis[(2,2,6,6-tetramethyl-4-((2,2,6,6-tetramethyl-1-octyloxypiperidin-4-yl)-decan-1,10-dioyl)piperidin-1-yl)oxy]octane",FNRJJSFGQVCXEK-UHFFFAOYSA-N,CCCCCCCC.CC(C)(C)OO.CC1(C)CC(CC(C)(C)N1)OC(=O)CCCCCCCCC(=O)OC2CC(C)(C)NC(C)(C)C2,-5.0575951101
A-2457,2-ethylhexyl 2-{[({2-[(2-ethylhexyl)oxy]-2-oxoethyl}sulfanyl)dimethylstannyl]sulfanyl}acetate,YAHBZWSDRFSFOO-UHFFFAOYSA-L,CCCCC(CC)COC(=O)CS[Sn](C)(C)SCC(=O)OCC(CC)CCCC,-4.0456632384
A-2458,"2-{2-[(8E)-heptadec-8-en-1-yl]-4,5-dihydro-1H-imidazol-1-yl}ethan-1-ol",WGTDLPBPQKAPMN-KTKRTIGZSA-N,CCCCCCCC\C=C/CCCCCCCC1=NCCN1CCO,-3.8458307588
A-2460,"3,5-di-tert-butyl-2-hydroxybenzoic acid hydrate zinc hydrochloride",DDGGEFYAEPNQFB-UHFFFAOYSA-N,O.Cl.[Zn].CC(C)(C)c1cc(C(O)=O)c(O)c(c1)C(C)(C)C,-4.8694711026
A-2461,zinc bis[bis(tetrapropylenephenyl)] bis(hydrogen dithiophosphate),JVQCNSRVEPWJNL-UHFFFAOYSA-L,[Zn++].CCCC(C)C(CCC)C(C)Cc1ccc(O[P]([S-])(=S)Oc2ccc(CC(C)C(CCC)C(C)CCC)cc2)cc1.CCCC(C)C(CCC)C(C)Cc3ccc(O[P]([S-])(=S)Oc4ccc(CC(C)C(CCC)C(C)CCC)cc4)cc3,-5.4154147676
A-2462,chromium tris((2-ethylhexanoate),WBKDDMYJLXVBNI-UHFFFAOYSA-K,[Cr+3].CCCCC(CC)C([O-])=O.CCCCC(CC)C([O-])=O.CCCCC(CC)C([O-])=O,-3.0199412712
A-2463,"[(2R,3R)-5,7-dihydroxy-2-(3,4,5-trihydroxyphenyl)chroman-3-yl] 3,4,5-trihydroxybenzoate",WMBWREPUVVBILR-WIYYLYMNSA-N,Oc1cc(O)c2C[C@@H](OC(=O)c3cc(O)c(O)c(O)c3)[C@H](Oc2c1)c4cc(O)c(O)c(O)c4,-1.0591609316
A-2464,"Alcohols, C16-18 and C18-unsatd., ethoxylated",WBCCOWHDSAVXAO-AATRIKPKSA-N,CCOCCCCCCCCCCCCCC\C=C\CC,-4.7999839607
A-2465,2-(4-chloro-2-fluorophenyl)acetonitrile,RTQOANCZEAIDEZ-UHFFFAOYSA-N,Fc1cc(Cl)ccc1CC#N,-2.5939062498
A-2466,"2,2-dimethyl-4-phenylpentanenitrile",GWCCFAFCQHECBM-UHFFFAOYSA-N,CC(CC(C)(C)C#N)c1ccccc1,-3.2350788163
A-2467,4-tert-butylcyclohexyl acetate,MBZRJSQZCBXRGK-UHFFFAOYSA-N,CC(=O)OC1CCC(CC1)C(C)(C)C,-3.6996406686
A-2470,17-hydroxyandrostan-3-one,NVKAWKQGWWIWPM-ABEVXSGRSA-N,C[C@]12CC[C@H]3[C@@H](CC[C@H]4CC(=O)CC[C@]34C)[C@@H]1CC[C@@H]2O,-4.9189988507
A-2471,1-cyclohexyl-3-[4-({4-[(cyclohexylcarbamoyl)amino]phenyl}methyl)phenyl]urea,SGXPOLBQSKXTKY-UHFFFAOYSA-N,O=C(NC1CCCCC1)Nc2ccc(Cc3ccc(NC(=O)NC4CCCCC4)cc3)cc2,-5.142667396
A-2473,"2,4-dioxo-1,3-diazetidine-1,3-bis(methyl-m-phenylene) diisocyanate",LOCPTSFJZDIICR-UHFFFAOYSA-N,Cc1ccc(cc1N=C=O)N2C(=O)N(c3ccc(C)c(c3)N=C=O)C2=O,-5.0368259397
A-2474,"(2R)-2-[(2R,3R,4S)-3,4-dihydroxyoxolan-2-yl]-2-hydroxyethyl dodecanoate",LWZFANDGMFTDAV-IOVMHBDKSA-N,CCCCCCCCCCCC(=O)OCC(O)[C@H]1OC[C@@H](O)[C@@H]1O,-5.0625368604
A-2476,methyl 2-({4-[2-(2-cyano-4-nitrophenyl)diazen-1-yl]-3-acetamidophenyl}(2-methoxy-2-oxoethyl)amino)acetate,DSYAJHRMVXOBRK-UHFFFAOYSA-N,COC(=O)CN(CC(=O)OC)c1ccc(N=Nc2ccc(cc2C#N)[N+]([O-])=O)c(NC(C)=O)c1,-5.1935197379
A-2477,iodocopper,LSXDOTMGLUJQCM-UHFFFAOYSA-M,[Cu+].[I-],-5.9787509813
A-2478,"4-[(E)-2-{3-[(E)-2-(2,4-diaminophenyl)diazen-1-yl]phenyl}diazen-1-yl]benzene-1,3-diamine",BDFZFGDTHFGWRQ-UHFFFAOYSA-N,Nc1ccc(N=Nc2cccc(c2)N=Nc3ccc(N)cc3N)c(N)c1,-4.197152695
A-2479,"2,3-dimethylpentane; 2-methylpentane; 3-methylhexane; 3-methylpentane",KFBRQWHEGZEJKU-UHFFFAOYSA-N,CCCC(C)C.CCCC(C)CC.CCC(C)CC.CCC(C)C(C)C,-3.2704062978
A-2481,pent-2-ene,QMMOXUPEWRXHJS-HWKANZROSA-N,CC\C=C\C,-2.5449048057
A-2482,hydrogen sulfide,RWSOTUBLDIXVET-UHFFFAOYSA-N,S,-5.5325378146
A-2483,2-[(2-cyanoethyl)[4-[(6-nitrobenzothiazol-2-yl)azo]phenyl]amino]ethyl acetate,ZNUBBVSUTSNSIM-UHFFFAOYSA-N,CC(=O)OCCN(CCC#N)c1ccc(cc1)N=Nc2sc3cc(ccc3n2)[N+]([O-])=O,-4.3409088983
A-2484,2-[(E)-2-{4-[(E)-2-(2-cyanophenyl)ethenyl]phenyl}ethenyl]benzonitrile,RBABXJPJIHMBBP-WXUKJITCSA-N,N#Cc1ccccc1/C=C/c2ccc(cc2)/C=C/c3ccccc3C#N,-4.2206388586
A-2485,"3,3'-[[4-[(2-chloro-4-nitrophenyl)azo]phenyl]imino]bis[propiononitrile]",ZXXVVTBKBDDTSE-UHFFFAOYSA-N,[O-][N+](=O)c1ccc(N=Nc2ccc(cc2)N(CCC#N)CCC#N)c(Cl)c1,-4.281954413
A-2486,3-[[2-(acetyloxy)ethyl][4-[(4-nitrophenyl)azo]phenyl]amino]propiononitrile,QLRDACXDRLGLOC-UHFFFAOYSA-N,CC(=O)OCCN(CCC#N)c1ccc(cc1)N=Nc2ccc(cc2)[N+]([O-])=O,-4.2803415835
A-2487,"3-[[4-[(2,6-dibromo-4-nitrophenyl)azo]phenyl]ethylamino]propiononitrile",MWMJPPMTXZJLIK-UHFFFAOYSA-N,CCN(CCC#N)c1ccc(cc1)N=Nc2c(Br)cc(cc2Br)[N+]([O-])=O,-4.3812486892
A-2488,3-[[4-[(2-chloro-4-nitrophenyl)azo]phenyl]ethylamino]propiononitrile,NPBDWXMKLFBNIW-UHFFFAOYSA-N,CCN(CCC#N)c1ccc(cc1)N=Nc2ccc(cc2Cl)[N+]([O-])=O,-4.2526115544
A-2489,"N-{5-[bis(prop-2-en-1-yl)amino]-2-[(E)-2-(2-chloro-4,6-dinitrophenyl)diazen-1-yl]-4-methoxyphenyl}acetamide",DKEXINVRFGWAKP-UHFFFAOYSA-N,COc1cc(N=Nc2c(Cl)cc(cc2[N+]([O-])=O)[N+]([O-])=O)c(NC(C)=O)cc1N(CC=C)CC=C,-4.3881793818
A-2490,(1-ethoxy-1-oxopropan-2-yl) 5-[2-chloro-4-(trifluoromethyl)phenoxy]-2-nitrobenzoate,CONWAEURSVPLRM-UHFFFAOYSA-N,CCOC(=O)C(C)OC(=O)c1cc(Oc2ccc(cc2Cl)C(F)(F)F)ccc1[N+]([O-])=O,-6.6230386723
A-2491,1-methyl-3-oxoandrostan-17-yl acetate,ZWCXCOXAEJHAHA-FVFBOZGUSA-N,C[C@H]1CC(=O)C[C@@H]2CC[C@H]3[C@@H]4CC[C@H](OC(C)=O)[C@@]4(C)CC[C@@H]3[C@@]12C,-5.0925589945
A-2493,"2,3-Dihydroxypropyl docosanoate",OKMWKBLSFKFYGZ-UHFFFAOYSA-N,CCCCCCCCCCCCCCCCCCCCCC(=O)OCC(O)CO,-6.9187336597
A-2494,2-methylpropane,IIVWHGMLFGNMOW-UHFFFAOYSA-N,C[C](C)C,-4.3765465432
A-2495,dihydroxy-dioxomolybdenum,VLAPMBHFAWRUQP-UHFFFAOYSA-L,O[Mo](O)(=O)=O,-2.3797609623
A-2497,"Butene, homopolymer (products derived from either/or But-1-ene/But-2-ene)",WTOOLIQYCQJDBG-BJILWQEISA-N,CCC=C.C\C=C\C,-4.6698435423
A-2498,2-[(heptanoyloxy)methyl]-3-hydroxy-2-[(pentanoyloxy)methyl]propyl nonanoate,OWFZZECENILGEX-UHFFFAOYSA-N,CCCCCCCCC(O)=O.CCCCCCC(O)=O.CCCCC(O)=O.OCC(CO)(CO)CO,-5.4183738573
A-2500,"2-{[2-(acetyloxy)ethyl]({4-[(E)-2-(2-bromo-4,6-dinitrophenyl)diazen-1-yl]-5-acetamido-2-methoxyphenyl})amino}ethyl acetate",JSRUDOBCTLPTFO-UHFFFAOYSA-N,COc1cc(N=Nc2c(Br)cc(cc2[N+]([O-])=O)[N+]([O-])=O)c(NC(C)=O)cc1N(CCOC(C)=O)CCOC(C)=O,-5.4951202425
A-2504,"2-tert-butylbenzene-1,4-diol",BGNXCDMCOKJUMV-UHFFFAOYSA-N,CC(C)(C)c1cc(O)ccc1O,-1.220683278
A-2505,4-methoxy-2-nitroaniline,QFMJFXFXQAFGBO-UHFFFAOYSA-N,COc1ccc(N)c(c1)[N+]([O-])=O,-1.2257020372
A-2506,"1,1-diethoxy-3,7-dimethylocta-2,6-diene",NTXGFKWLJFHGGJ-ACCUITESSA-N,CCOC(OCC)\C=C(C)\CCC=C(C)C,-2.3547996853
A-2507,"1H-1,3-benzodiazole-2-thiol",YHMYGUUIMTVXNW-UHFFFAOYSA-N,S=C1Nc2ccccc2N1,-2.176687281
A-2510,1-(hexyloxy)hexane,BPIUIOXAFBGMNB-UHFFFAOYSA-N,CCCCCCOCCCCCC,-4.2703037605
A-2511,3-[[2-(2-cyanoethoxy)ethyl][4-[(4-nitrophenyl)azo]phenyl]amino]propiononitrile,PNWYPUYECVECFF-UHFFFAOYSA-N,[O-][N+](=O)c1ccc(cc1)N=Nc2ccc(cc2)N(CCOCCC#N)CCC#N,-4.5937500267
A-2512,"N,N',N'',N'''-tetrakis(4,6-bis(butyl-(N-methyl-2,2,6,6-tetramethylpiperidin-4-yl)amino)triazin-2-yl)-4,7-diazadecane-1,10-diamine",OWXXKGVQBCBSFJ-UHFFFAOYSA-N,CCCCN(C1CC(C)(C)N(C)C(C)(C)C1)c2nc(NCCCN(CCN(CCCNc3nc(nc(n3)N(CCCC)C4CC(C)(C)N(C)C(C)(C)C4)N(CCCC)C5CC(C)(C)N(C)C(C)(C)C5)c6nc(nc(n6)N(CCCC)C7CC(C)(C)N(C)C(C)(C)C7)N(CCCC)C8CC(C)(C)N(C)C(C)(C)C8)c9nc(nc(n9)N(CCCC)C%10CC(C)(C)N(C)C(C)(C)C%10)N(CCCC)C%11CC(C)(C)N(C)C(C)(C)C%11)nc(n2)N(CCCC)C%12CC(C)(C)N(C)C(C)(C)C%12,-5.3590146681
A-2513,"N-{2-[(E)-2-(2-chloro-4,6-dinitrophenyl)diazen-1-yl]-5-(diethylamino)-4-methoxyphenyl}acetamide",LJIKWZXCXJFCCB-UHFFFAOYSA-N,CCN(CC)c1cc(NC(C)=O)c(cc1OC)N=Nc2c(Cl)cc(cc2[N+]([O-])=O)[N+]([O-])=O,-4.6673277833
A-2514,decahydronaphthalene,NNBZCPXTIHJBJL-UHFFFAOYSA-N,C1CCC2CCCCC2C1,-4.1406777053
A-2515,dibutyltin maleate,ZBBLRPRYYSJUCZ-YOTINIEPSA-L,CCCC[Sn++]CCCC.[O-]C(=O)\C=C\C([O-])=O,-4.5403282232
A-2516,hydroxyzincio 2-methylprop-2-enoate,QBPJVVCNLUNWJN-UHFFFAOYSA-L,CC(=C)C(=O)O[Zn]O,-4.2239603591
A-2517,"propane-1,2-diyl bisoctadec-9-enoate",UMHYVXGZRGOICM-AUYXYSRISA-N,CCCCCCCC\C=C/CCCCCCCC(=O)OCC(C)OC(=O)CCCCCCC\C=C/CCCCCCCC,-4.7817560925
A-2519,"4',4'''-azobis[N-(9,10-dihydro-9,10-dioxo-1-anthryl)[1,1'-biphenyl]-4-carboxamide]",AJDUTMFFZHIJEM-UHFFFAOYSA-N,O=C(Nc1cccc2C(=O)c3ccccc3C(=O)c12)c4ccc(cc4)c5ccc(cc5)N=Nc6ccc(cc6)c7ccc(cc7)C(=O)Nc8cccc9C(=O)c%10ccccc%10C(=O)c89,-5.7164582793
A-2520,Di-p-xylylene,OOLUVSIJOMLOCB-UHFFFAOYSA-N,C1Cc2ccc(CCc3ccc1cc3)cc2,-5.169478497
A-2521,Violanthrone,YKSGNOMLAIJTLT-UHFFFAOYSA-N,O=C1c2ccccc2c3ccc4c5ccc6c7ccccc7C(=O)c8ccc(c9ccc1c3c49)c5c68,-5.5133127462
A-2525,Vat green 1,JXUKQCUPTNLTCS-UHFFFAOYSA-N,COc1cc2c3ccccc3C(=O)c4ccc5c6ccc7C(=O)c8ccccc8c9cc(OC)c(c1c5c24)c6c79,-5.5991706951
A-2526,"Alcohols, C12-15-branched and linear",YJIYBYOWBOONOU-LBPRGKRZSA-N,CCCCC[C@H](CCC)CCCO,-5.1563604082
A-2528,"1,1-bis(tert-butylperoxy)cyclohexane",HSLFISVKRDQEBY-UHFFFAOYSA-N,CC(C)(C)OOC1(CCCCC1)OOC(C)(C)C,-5.3862138373
A-2532,"(2E,4E,6E,8E)-3,7-dimethyl-9-(2,6,6-trimethylcyclohex-1-en-1-yl)nona-2,4,6,8-tetraen-1-yl hexadecanoate",VYGQUTWHTHXGQB-FFHKNEKCSA-N,CCCCCCCCCCCCCCCC(=O)OC/C=C(C)/C=C/C=C(C)/C=C/C1=C(C)CCCC1(C)C,-5.7200550602
A-2535,(2R)-2-[4-[5-(trifluoromethyl)pyridin-2-yl]oxyphenoxy]propanoic acid,YUVKUEAFAVKILW-SECBINFHSA-N,C[C@@H](Oc1ccc(Oc2ccc(cn2)C(F)(F)F)cc1)C(O)=O,-2.6227956692
A-2537,"1,1-bis[(2-methylbutan-2-yl)peroxy]cyclohexane",IMYCVFRTNVMHAD-UHFFFAOYSA-N,CCC(C)(C)OOC1(CCCCC1)OOC(C)(C)CC,-5.4600374185
A-2538,"1,2-Dihydro-2,2,4-trimethylquinoline, oligomers",ZNRLMGFXSPUZNR-UHFFFAOYSA-N,CC1=CC(C)(C)Nc2ccccc12,-5.2386958035
A-2540,1-chlorooctane,CNDHHGUSRIZDSL-UHFFFAOYSA-N,CCCCCCCCCl,-5.1722437893
A-2541,"2,2,4,4,6,6,8,8,10,10,12,12-dodecamethyl-3,5,7,9,11-pentaoxa-2,4,6,8,10,12-hexasilatridecane",ADANNTOYRVPQLJ-UHFFFAOYSA-N,C[Si](C)(C)O[Si](C)(C)O[Si](C)(C)O[Si](C)(C)O[Si](C)(C)O[Si](C)(C)C,-5.6618136317
A-2542,"2,2-bis[(sulfanyloxy)methyl]butyl phosphinite 1,5-bis[2-methyl-3-(sulfanyloxy)-2-[(sulfanyloxy)methyl]propyl] pentanedioate",BTOXUEYJVDLLSS-UHFFFAOYSA-N,CCC(COP)(COS)COS.CC(COS)(COS)COC(=O)CCCC(=O)OCC(C)(COS)COS,-5.8419473099
A-2543,Tetra(10B)boron carbide,INAHAJYZKVIDIZ-UHFFFAOYSA-N,B12B3B4B1C234,-4.7424030214
A-2544,"2-(2H-1,2,3-benzotriazol-2-yl)-4-(2,4,4-trimethylpentan-2-yl)phenol",IYAZLDLPUNDVAG-UHFFFAOYSA-N,CC(C)(C)CC(C)(C)c1ccc(O)c(c1)n2nc3ccccc3n2,-5.5097937283
A-2545,"2-(2H-1,2,3-benzotriazol-2-yl)-4-methylphenol",MCPKSFINULVDNX-UHFFFAOYSA-N,Cc1ccc(O)c(c1)n2nc3ccccc3n2,-5.3526667277
A-2546,"2-[(2-{[3-(3,5-di-tert-butyl-4-hydroxyphenyl)propanoyl]oxy}ethyl)sulfanyl]ethyl 3-(3,5-di-tert-butyl-4-hydroxyphenyl)propanoate",VFBJXXJYHWLXRM-UHFFFAOYSA-N,CC(C)(C)c1cc(CCC(=O)OCCSCCOC(=O)CCc2cc(c(O)c(c2)C(C)(C)C)C(C)(C)C)cc(c1O)C(C)(C)C,-5.8081724723
A-2547,2-[2-(2-{[3-(3-tert-butyl-4-hydroxy-5-methylphenyl)propanoyl]oxy}ethoxy)ethoxy]ethyl 3-(3-tert-butyl-4-hydroxy-5-methylphenyl)propanoate,QSRJVOOOWGXUDY-UHFFFAOYSA-N,Cc1cc(CCC(=O)OCCOCCOCCOC(=O)CCc2cc(C)c(O)c(c2)C(C)(C)C)cc(c1O)C(C)(C)C,-5.7684649408
A-2548,2-benzoyl-5-(octyloxy)phenol,QUAMTGJKVDWJEQ-UHFFFAOYSA-N,CCCCCCCCOc1ccc(c(O)c1)C(=O)c2ccccc2,-5.5137980476
A-2549,2-butyloctan-1-ol,XMVBHZBLHNOQON-UHFFFAOYSA-N,CCCCCCC(CO)CCCC,-5.2703037605
A-2550,2-decyltetradecan-1-ol,CAYHVMBQBLYQMT-UHFFFAOYSA-N,CCCCCCCCCCCCC(CO)CCCCCCCCCC,-5.5498158833
A-2551,2-dodecylhexadecan-1-ol,DEMBLPGWNXUBIQ-UHFFFAOYSA-N,CCCCCCCCCCCCCCC(CO)CCCCCCCCCCCC,-5.6135997753
A-2552,2-ethyl-1-{[(2-ethylhexyl)oxy]methoxy}hexane,QPIWJVQXEMCELO-UHFFFAOYSA-N,CCCCC(CC)COCOCC(CC)CCCC,-5.4353234735
A-2553,2-hexyldecan-1-ol,XULHFMYCBKQGEE-UHFFFAOYSA-N,CCCCCCCCC(CO)CCCCCC,-5.3846168146
A-2554,"2-tert-butyl-6-(5-chloro-2H-1,2,3-benzotriazol-2-yl)-4-methylphenol",OCWYEMOEOGEQAN-UHFFFAOYSA-N,Cc1cc(n2nc3ccc(Cl)cc3n2)c(O)c(c1)C(C)(C)C,-5.4994176265
A-2555,2-tert-butyl-6-[(3-tert-butyl-5-ethyl-2-hydroxyphenyl)methyl]-4-ethylphenol,GPNYZBKIGXGYNU-UHFFFAOYSA-N,CCc1cc(Cc2cc(CC)cc(c2O)C(C)(C)C)c(O)c(c1)C(C)(C)C,-5.5665093776
A-2556,2-tetradecyloctadecan-1-ol,RTXVDAJGIYOHFY-UHFFFAOYSA-N,CCCCCCCCCCCCCCCCC(CO)CCCCCCCCCCCCCC,-5.66920434
A-2559,3-octadecyl-1-{3-[(octadecylcarbamoyl)amino]propyl}urea,UZXKVMHAGOJYHP-UHFFFAOYSA-N,CCCCCCCCCCCCCCCCCCNC(=O)NCCCNC(=O)NCCCCCCCCCCCCCCCCCC,-5.8229189425
A-2561,4-amino-N-(2-ethylhexyl)benzene-1-sulfonamide,HHEXVLXMZIVFSS-UHFFFAOYSA-N,CCCCC(CC)CN[S](=O)(=O)c1ccc(N)cc1,-5.4539677668
A-2563,"5-tert-butyl-2-[5-(5-tert-butyl-1,3-benzoxazol-2-yl)thiophen-2-yl]-1,3-benzoxazole",AIXZBGVLNVRQSS-UHFFFAOYSA-N,CC(C)(C)c1ccc2oc(nc2c1)c3sc(cc3)c4oc5ccc(cc5n4)C(C)(C)C,-5.634046793
A-2564,6-[3-(decanoyloxy)-2-[(heptanoyloxy)methyl]-2-[(octanoyloxy)methyl]propoxy]-6-oxohexanoic acid,YCGWUEYSZNACHN-UHFFFAOYSA-N,CCCCCCCCCC(O)=O.CCCCCCCC(O)=O.CCCCCC(O)=O.CCC(CO)(CO)CO.OC(=O)CCCCC(O)=O,-5.8530645557
A-2565,Pigment Red 224,CLYVDMAATCIVBF-UHFFFAOYSA-N,O=C1OC(=O)c2ccc3c4ccc5C(=O)OC(=O)c6ccc(c7ccc1c2c37)c4c56,-5.5936426625