ID,Name,InChIKey,SMILES,Solubility
B-4136,alpha-chlorotoluene,KCXMKQUNVWSEMD-UHFFFAOYSA-N,ClCc1ccccc1,-2.3822
B-4138,thioanisole,HNKJADCVZUBCPG-UHFFFAOYSA-N,CSc1ccccc1,-2.39
B-4140,formanilide,DYDNPESBYVVLBO-UHFFFAOYSA-N,O=CNc1ccccc1,-0.6785
B-4141,phenylisothiocyanate,QKFJKGMPGYROCL-UHFFFAOYSA-N,S=C=Nc1ccccc1,-3.1772
B-4144,2-chloroacetanilide,KNVQTRVKSOEHPU-UHFFFAOYSA-N,CC(=O)Nc1ccccc1Cl,-1.4001
B-4145,3-methylacetanilide,ALMHSXDYCFOZQD-UHFFFAOYSA-N,CC(=O)Nc1cccc(C)c1,-2.091
B-4146,2-nitroacetanilide,BUNFNRVLMKHKIT-UHFFFAOYSA-N,CC(=O)Nc1ccccc1[N+]([O-])=O,-1.9093
B-4147,benzylisothiocyanate,MDKCFLQDBWCQCV-UHFFFAOYSA-N,S=C=NCc1ccccc1,-3.1364
B-4148,"5,6,7,8-tetrahydro-2-naphthol",UMKXSOXZAXIOPJ-UHFFFAOYSA-N,Oc1ccc2CCCCc2c1,-1.9948
B-4149,"2,6-dichlorobenzamide",JHSPCUHPSIUQRB-UHFFFAOYSA-N,NC(=O)c1c(Cl)cccc1Cl,-1.8427
B-4150,3-methyl-4'-nitrodiphenyl ether,DLKBRTKDSDXWNA-UHFFFAOYSA-N,Cc1cccc(Oc2ccc(cc2)[N+]([O-])=O)c1,-4.6613
B-4151,n-(ethylaminomethyl)benzamide,MUDXIWKFOCILIO-UHFFFAOYSA-N,CCNCNC(=O)c1ccccc1,-0.0749
B-4152,phenylpropylmethylamine,AUFSOOYCQYDGES-UHFFFAOYSA-N,CNCC(C)c1ccccc1,-1.0947
B-4153,n-nitrosopiperidine,UWSDONTXWQOZFN-UHFFFAOYSA-N,O=NN1CCCCC1,-0.1738
B-4154,azobenzene,DMLAVOWQYNRWNQ-UHFFFAOYSA-N,c1ccc(cc1)N=Nc2ccccc2,-4.4544
B-4155,cocaine,ZPUCINDJVBIVPJ-PFSRBDOWSA-N,COC(=O)[C@H]1[C@H](CC2CCC1N2C)OC(=O)c3ccccc3,-2.2267
B-4156,imipramine,BCGWQEUPMDMJNV-UHFFFAOYSA-N,CN(C)CCCN1c2ccccc2CCc3ccccc13,-4.187
B-4164,trimethyl phosphate,WVLBCYQITXONBZ-UHFFFAOYSA-N,CO[P](=O)(OC)OC,0.5526
B-4165,diisopropyl methylphosphonate,WOAFDHWYKSOANX-UHFFFAOYSA-N,CC(C)O[P](C)(=O)OC(C)C,-0.0516
B-4167,benzylurea,RJNJWHFSKNJCTB-UHFFFAOYSA-N,NC(=O)NCc1ccccc1,-0.9462
B-4170,benzenesulfonamide,KHBQMWCZKVMBLN-UHFFFAOYSA-N,N[S](=O)(=O)c1ccccc1,-1.563
B-4171,m-methylbenzenesulfonamide,NVZINPVISUVPHW-UHFFFAOYSA-N,Cc1cccc(c1)[S](N)(=O)=O,-1.3409
B-4172,cyclophosphamide,CMSMOCZEIVJLDB-UHFFFAOYSA-N,ClCCN(CCCl)[P]1(=O)NCCCO1,-0.8147
B-4173,"p,p'-ddt",YVGGHNCTFXOJCH-UHFFFAOYSA-N,Clc1ccc(cc1)C(c2ccc(Cl)cc2)C(Cl)(Cl)Cl,-7.8092
B-4174,fenthion,PNVJTZOFSHSLTO-UHFFFAOYSA-N,CO[P](=S)(OC)Oc1ccc(SC)c(C)c1,-4.5695
B-4176,dimethoate,MCWXGJITAZMZEV-UHFFFAOYSA-N,CNC(=O)CS[P](=S)(OC)OC,-0.9624
B-4179,"p,p'-dde",UCNVFOCBFJOQAL-UHFFFAOYSA-N,Clc1ccc(cc1)C(=C(Cl)Cl)c2ccc(Cl)cc2,-6.9004
B-4184,"2,4-dichlorophenoxyacetic acid",OVSKIKFHRZPJSS-UHFFFAOYSA-N,OC(=O)COc1ccc(Cl)cc1Cl,-2.5139
B-4186,dichlofenthion,WGOWCPGHOCIHBW-UHFFFAOYSA-N,CCO[P](=S)(OCC)Oc1ccc(Cl)cc1Cl,-6.1094
B-4187,chlorpropham,CWJSHJJYOPWUGX-UHFFFAOYSA-N,CC(C)OC(=O)Nc1cccc(Cl)c1,-3.3804
B-4188,fenuron,XXOYNJXVWVNOOJ-UHFFFAOYSA-N,CN(C)C(=O)Nc1ccccc1,-1.6101
B-4189,"dcip  (2,2'-oxybis-1-chloropropane)",QCFYJCYNJLBDRT-UHFFFAOYSA-N,CC(CCl)OC(C)CCl,-2.0027
B-4190,dicofol,UOAMTSKGCBMZTC-UHFFFAOYSA-N,OC(c1ccc(Cl)cc1)(c2ccc(Cl)cc2)C(Cl)(Cl)Cl,-5.6657
B-4192,dichlorprop,MZHCENGPTKEIGP-UHFFFAOYSA-N,CC(Oc1ccc(Cl)cc1Cl)C(O)=O,-2.8271
B-4193,malathion,JXSJBGJIGXNWCI-UHFFFAOYSA-N,CCOC(=O)CC(S[P](=S)(OC)OC)C(=O)OCC,-3.3637
B-4195,isopropyl phenyl carbamate,VXPLXMJHHKHSOA-UHFFFAOYSA-N,CC(C)OC(=O)Nc1ccccc1,-3.0005
B-4198,phorate,BULVZWIRKLYCBC-UHFFFAOYSA-N,CCO[P](=S)(OCC)SCSCC,-3.7166
B-4199,disulfoton,DOFZAZXDOSGAJZ-UHFFFAOYSA-N,CCO[P](=S)(OCC)SCCSCC,-4.2262
B-4200,ronnel,JHJOOSLFWRRSGU-UHFFFAOYSA-N,CO[P](=S)(OC)Oc1cc(Cl)c(Cl)cc1Cl,-5.5072
B-4201,dmpa,PJFGPJQBWSEWKX-UHFFFAOYSA-N,CO[P](=S)(NC(C)C)Oc1ccc(Cl)cc1Cl,-4.7982
B-4202,crufomate,BOFHKBLZOYVHSI-UHFFFAOYSA-N,CN[P](=O)(OC)Oc1ccc(cc1Cl)C(C)(C)C,-3.1639
B-4203,naled,BUYMVQAILCEWRR-UHFFFAOYSA-N,CO[P](=O)(OC)OC(Br)C(Cl)(Cl)Br,-2.2797
B-4204,paraoxon,WYMSBXTXOHUIGT-UHFFFAOYSA-N,CCO[P](=O)(OCC)Oc1ccc(cc1)[N+]([O-])=O,-2.0594
B-4205,trichloronate,ANIAQSUBRGXWLS-UHFFFAOYSA-N,CCO[P](=S)(CC)Oc1cc(Cl)c(Cl)cc1Cl,-5.7524
B-4206,diuron,XMTQQYYKAHVGBJ-UHFFFAOYSA-N,CN(C)C(=O)Nc1ccc(Cl)c(Cl)c1,-3.7443
B-4207,linuron,XKJMBINCVNINCA-UHFFFAOYSA-N,CON(C)C(=O)Nc1ccc(Cl)c(Cl)c1,-3.5213
B-4208,chlorfenvinphos,FSAVDKDHPDSCTO-WQLSENKSSA-N,CCO[P](=O)(OCC)OC(=C\Cl)/c1ccc(Cl)cc1Cl,-3.4624
B-4209,3-chloro-dimethyl parathion,NZNRRXXETLSZRO-UHFFFAOYSA-N,CO[P](=S)(OC)Oc1ccc(c(Cl)c1)[N+]([O-])=O,-3.8717
B-4210,neburon,CCGPUGMWYLICGL-UHFFFAOYSA-N,CCCCN(C)C(=O)Nc1ccc(Cl)c(Cl)c1,-4.7584
B-4211,o-butyl carbamate,SKKTUOZKZKCGTB-UHFFFAOYSA-N,CCCCOC(N)=O,-0.6571
B-4212,o-methyl carbamate,GTCAXTIRRLKXRU-UHFFFAOYSA-N,COC(N)=O,0.964
B-4213,o-propylcarbamate,YNTOKMNHRPSGFU-UHFFFAOYSA-N,CCCOC(N)=O,-0.1302
B-4214,propanil,LFULEKSKNZEWOE-UHFFFAOYSA-N,CCC(=O)Nc1ccc(Cl)c(Cl)c1,-2.9864
B-4217,carbophenothion-methyl,OUCCVXVYGFBXSV-UHFFFAOYSA-N,CO[P](=S)(OC)SCSc1ccc(Cl)cc1,-5.2939
B-4219,n-methyl-m-tolylcarbamate,VOEYXMAFNDNNED-UHFFFAOYSA-N,CNC(=O)Oc1cccc(C)c1,-1.803
B-4221,chlorothanonil,CRQQGFGUEAVUIL-UHFFFAOYSA-N,Clc1c(Cl)c(C#N)c(Cl)c(C#N)c1Cl,-5.6466
B-4222,epn,AIGRXSNSLVJMEA-UHFFFAOYSA-N,CCO[P](=S)(Oc1ccc(cc1)[N+]([O-])=O)c2ccccc2,-5.0169
B-4223,bromophos,NYQDCVLCJXRDSK-UHFFFAOYSA-N,CO[P](=S)(OC)Oc1cc(Cl)c(Br)cc1Cl,-6.0864
B-4224,fluometuron,RZILCCPWPBTYDO-UHFFFAOYSA-N,CN(C)C(=O)Nc1cccc(c1)C(F)(F)F,-3.4365
B-4225,molinate,DEDOPGXGGQYYMW-UHFFFAOYSA-N,CCSC(=O)N1CCCCCC1,-2.2858
B-4226,solan,WGVWLKXZBUVUAM-UHFFFAOYSA-N,CCCC(C)C(=O)Nc1ccc(C)c(Cl)c1,-4.4503
B-4229,3-i-pr-5-mephenyl-n-me carbamate,DTAPQAJKAFRNJB-UHFFFAOYSA-N,CNC(=O)Oc1cc(C)cc(c1)C(C)C,-3.3575
B-4230,n-methyl-2-isopropylphenylcarbam,QBSJMKIUCUGGNG-UHFFFAOYSA-N,CNC(=O)Oc1ccccc1C(C)C,-2.6841
B-4231,cyanophos,SCKHCCSZFPSHGR-UHFFFAOYSA-N,CO[P](=S)(OC)Oc1ccc(cc1)C#N,-3.7232
B-4232,"3,5-Xylyl methylcarbamate",CVQODEWAPZVVBU-UHFFFAOYSA-N,CNC(=O)Oc1cc(C)cc(C)c1,-2.5813
B-4233,metobromuron,WLFDQEVORAMCIM-UHFFFAOYSA-N,CON(C)C(=O)Nc1ccc(Br)cc1,-2.895
B-4235,abate,WWJZWCUNLNYYAU-UHFFFAOYSA-N,CO[P](=S)(OC)Oc1ccc(Sc2ccc(O[P](=S)(OC)OC)cc2)cc1,-6.2375
B-4236,buturon,BYYMILHAKOURNM-UHFFFAOYSA-N,CC(C#C)N(C)C(=O)Nc1ccc(Cl)cc1,-3.8971
B-4238,salithion,OUNSASXJZHBGAI-UHFFFAOYSA-N,CO[P]1(=S)OCc2ccccc2O1,-3.5714
B-4239,bromophos ethyl,KWGUFOITWDSNQY-UHFFFAOYSA-N,CCO[P](=S)(OCC)Oc1cc(Cl)c(Br)cc1Cl,-5.9521
B-4240,monalide,KXGYBSNVFXBPNO-UHFFFAOYSA-N,CCCC(C)(C)C(=O)Nc1ccc(Cl)cc1,-4.0218
B-4241,propaphos,PWYIUEFFPNVCMW-UHFFFAOYSA-N,CCCO[P](=O)(OCCC)Oc1ccc(SC)cc1,-3.3865
B-4242,cyanofenphos,LRNJHZNPJSPMGK-UHFFFAOYSA-N,CCO[P](=S)(Oc1ccc(cc1)C#N)c2ccccc2,-5.7037
B-4243,terbufos,XLNZEKHULJKQBA-UHFFFAOYSA-N,CCO[P](=S)(OCC)SCSC(C)(C)C,-4.755
B-4244,chlorbromuron,NLYNUTMZTCLNOO-UHFFFAOYSA-N,CON(C)C(=O)Nc1ccc(Br)c(Cl)c1,-3.9236
B-4245,chlortoluron,JXCGFZXSOMJFOA-UHFFFAOYSA-N,CN(C)C(=O)Nc1ccc(C)c(Cl)c1,-3.4826
B-4246,edifenphos,AWZOLILCOUMRDG-UHFFFAOYSA-N,CCO[P](=O)(Sc1ccccc1)Sc2ccccc2,-3.3305
B-4247,iodofenphos,LFVLUOAHQIVABZ-UHFFFAOYSA-N,CO[P](=S)(OC)Oc1cc(Cl)c(I)cc1Cl,-6.616
B-4249,leptophos,CVRALZAYCYJELZ-UHFFFAOYSA-N,CO[P](=S)(Oc1cc(Cl)c(Br)cc1Cl)c2ccccc2,-7.1379
B-4250,fenamiphos,ZCJPOPBZHLUFHF-UHFFFAOYSA-N,CCO[P](=O)(NC(C)C)Oc1ccc(SC)c(C)c1,-2.9648
B-4251,piperophos,UNLYSVIDNRIVFJ-UHFFFAOYSA-N,CCCO[P](=S)(OCCC)SCC(=O)N1CCCCC1C,-4.1504
B-4252,isofenphos,HOQADATXFBOEGG-UHFFFAOYSA-N,CCO[P](=S)(NC(C)C)Oc1ccccc1C(=O)OC(C)C,-4.1939
B-4253,iprobenfos,FCOAHACKGGIURQ-UHFFFAOYSA-N,CC(C)O[P](=O)(OC(C)C)SCc1ccccc1,-2.8579
B-4254,thiobencarb,QHTQREMOGMZHJV-UHFFFAOYSA-N,CCN(CC)C(=O)SCc1ccc(Cl)cc1,-3.9641
B-4258,fenvalerate,NYPJDWWKZLNGGM-UHFFFAOYSA-N,CC(C)C(C(=O)OC(C#N)c1cccc(Oc2ccccc2)c1)c3ccc(Cl)cc3,-7.2429
B-4260,propylamine,WGYKZJWCGVVSQN-UHFFFAOYSA-N,CCCN,1.2283
B-4262,acetaldehyde,IKHGUXGNUITLKF-UHFFFAOYSA-N,CC=O,1.3561
B-4265,n-nitrosodimethylamine,UMFJAHHVKNCGLG-UHFFFAOYSA-N,CN(C)N=O,1.1303
B-4268,pyridine oxide,ILVXOBCQQYKLDS-UHFFFAOYSA-N,[O-][n+]1ccccc1,1.0218
B-4269,dimethyl disulfide,WQOXQRCZOLPYPM-UHFFFAOYSA-N,CSSC,-1.4969
B-4271,"2,3-dimethylpyridine",HPYNZHMRTTWQTB-UHFFFAOYSA-N,Cc1cccnc1C,0.0938
B-4272,"2,4-dimethylpyridine",JYYNAJVZFGKDEQ-UHFFFAOYSA-N,Cc1ccnc(C)c1,0.4471
B-4273,"2,5-dimethylpyridine",XWKFPIODWVPXLX-UHFFFAOYSA-N,Cc1ccc(C)nc1,-0.03
B-4274,"3,4-dimethylpyridine",NURQLCJSMXZBPC-UHFFFAOYSA-N,Cc1ccncc1C,-0.314
B-4275,"3,5-dimethylpyridine",HWWYDZCSSYKIAD-UHFFFAOYSA-N,Cc1cncc(C)c1,-0.5115
B-4276,2-vinylpyridine,KGIGUEBEKRSTEW-UHFFFAOYSA-N,C=Cc1ccccn1,-0.5824
B-4277,4-vinylpyridine,KFDVPJUYSDEJTH-UHFFFAOYSA-N,C=Cc1ccncc1,-0.5579
B-4278,"2,2-bipyridine",ROFVEXUMMXZLPA-UHFFFAOYSA-N,c1ccc(nc1)c2ccccn2,-1.4206
B-4279,"4,4'-dipyridyl",MWVTWFVJZLCBMC-UHFFFAOYSA-N,c1cc(ccn1)c2ccncc2,-1.5376
B-4280,"1,7-phenanthroline",OZKOMUDCMCEDTM-UHFFFAOYSA-N,c1cnc2c(c1)ccc3ncccc23,-2.6806
B-4281,acridine,DZBUGLKDJFMEHC-UHFFFAOYSA-N,c1ccc2nc3ccccc3cc2c1,-3.6691
B-4282,benzo(f)quinoline,HCAUQPZEWLULFJ-UHFFFAOYSA-N,c1ccc2c(c1)ccc3ncccc23,-3.3574
B-4284,isoquinoline,AWJUIBRHMBBTKR-UHFFFAOYSA-N,c1ccc2cnccc2c1,-1.456
B-4285,"2,2'-biquinoline",WPTCSQBWLUUYDV-UHFFFAOYSA-N,c1ccc2nc(ccc2c1)c3ccc4ccccc4n3,-5.4002
B-4286,phthalazine,LFSXCDWNBUNEEM-UHFFFAOYSA-N,c1ccc2cnncc2c1,-0.4155
B-4287,diazinon,FHIVAFMUCKRCQO-UHFFFAOYSA-N,CCO[P](=S)(OCC)Oc1cc(C)nc(n1)C(C)C,-3.8813
B-4289,"phenol,2,2'-methylenebis 4-chloro-",MDNWOSOZYLHTCG-UHFFFAOYSA-N,Oc1ccc(Cl)cc1Cc2cc(Cl)ccc2O,-3.9528
B-4292,4-hexylresorcinol,WFJIVOKAWHGMBH-UHFFFAOYSA-N,CCCCCCc1ccc(O)cc1O,-2.5895
B-4294,Diethylstilbestrol,RGLYKWWBQGJZGM-ISLYRVAYSA-N,CC\C(c1ccc(O)cc1)=C(\CC)c2ccc(O)cc2,-4.3495
B-4298,"3,3'-dichlorobenzidine",HUWXDEQWWKGHRV-UHFFFAOYSA-N,Nc1ccc(cc1Cl)c2ccc(N)c(Cl)c2,-4.912
B-4301,"1,4-benzenediamine",CBCKQZAAMUWICA-UHFFFAOYSA-N,Nc1ccc(N)cc1,-0.4658
B-4303,"3,3'-dimethoxybenzidine",JRBJSXQPQWSCCF-UHFFFAOYSA-N,COc1cc(ccc1N)c2ccc(N)c(OC)c2,-3.6098
B-4304,p-methylsulfonyltoluene,YYDNBUBMBZRNQQ-UHFFFAOYSA-N,Cc1ccc(cc1)[S](C)(=O)=O,-1.9873
B-4307,"n,n-diethylformamide",SUAKHGWARZSWIH-UHFFFAOYSA-N,CCN(CC)C=O,0.995
B-4308,"l-tryptophan, n-acetyl, ethyl ester",LYXGYFZZVMODTB-AWEZNQCLSA-N,CCOC(=O)[C@H](Cc1c[nH]c2ccccc12)N(C)C=O,-2.2709
B-4309,"ethenesulfonamide, n-phenyl-",YRLXBWHNSONKOH-UHFFFAOYSA-N,C=C[S](=O)(=O)Nc1ccccc1,-1.4996
B-4310,"benzenamine, n-hydroxy-4-methyl-",AGJOAIMUXIQLCN-UHFFFAOYSA-N,Cc1ccc(NO)cc1,-0.7894
B-4311,phenylhydroxylamine,CKRZKMFTZCFYGB-UHFFFAOYSA-N,ONc1ccccc1,-0.4359
B-4312,disulfoton sulfoxide,UPUGLJYNCXXUQV-UHFFFAOYSA-N,CCO[P](=S)(OCC)SCC[S](=O)CC,-1.8609
B-4313,phorate sulfoxide,RCRHKXGEYNVPDK-UHFFFAOYSA-N,CCO[P](=O)(OCC)SC[S](=O)CC,-1.5124
B-4314,"phosphorodithioic acid, s-[2-(et-so)et] o,o-dime",UILALIJMTSYZSE-UHFFFAOYSA-N,CC[S](=O)CCS[P](=S)(OC)OC,-0.9137
B-4315,"1,1'-sulfinylbis(2-chloroethane)",NOMHBBFEJSVGSC-UHFFFAOYSA-N,ClCC[S](=O)CCCl,-1.1641
B-4316,aphidan,KOTOUBGHZHWCCJ-UHFFFAOYSA-N,CC[S](=O)CS[P](=S)(OC(C)C)OC(C)C,-2.3074
B-4317,terbufos sulfone,DWZSTEUTHNUVQD-UHFFFAOYSA-N,CCO[P](=S)(OCC)SC[S](=O)(=O)C(C)(C)C,-2.8951
B-4318,diethyl sulfone,MBDUIEKYVPVZJH-UHFFFAOYSA-N,CC[S](=O)(=O)CC,0.0433
B-4319,"ethane, [(iodomethyl)sulfonyl]-",CIYXRBRHNLTRPC-UHFFFAOYSA-N,CC[S](=O)(=O)CI,-0.9714
B-4320,ethyl benzenesulfonate,XDRMBCMMABGNMM-UHFFFAOYSA-N,CCO[S](=O)(=O)c1ccccc1,-2.1308
B-4321,methyl benzenesulfonate,CZXGXYBOQYQXQD-UHFFFAOYSA-N,CO[S](=O)(=O)c1ccccc1,-1.7419
B-4322,pyrazolynate,ASRAWSBMDXVNLX-UHFFFAOYSA-N,Cn1nc(C)c(C(=O)c2ccc(Cl)cc2Cl)c1O[S](=O)(=O)c3ccc(C)cc3,-6.8946
B-4323,"benzenamine, 4-[(4-chlorophenyl)sulfonyl]-",RWIUBJDOESNTFZ-UHFFFAOYSA-N,Nc1ccc(cc1)[S](=O)(=O)c2ccc(Cl)cc2,-4.1267
B-4324,"benzoic acid, 5-amino-2-sulfanilyl-",RLFQWOIZGISXEW-UHFFFAOYSA-N,Nc1ccc(N)c(c1)[S](=O)(=O)c2ccccc2C(O)=O,-1.8395
B-4326,"acetamide, n-[4-[(4-aminophenyl)sulfonyl]phenyl]-",WDOCBIHNYYQINH-UHFFFAOYSA-N,CC(=O)Nc1ccc(cc1)[S](=O)(=O)c2ccc(N)cc2,-3.6116
B-4327,"carbamic acid, sulfamoyl-, 2-ethylbutyl ester",KWOASAPABPGJSS-UHFFFAOYSA-N,CCC(CC)COC(=O)N[S](N)(=O)=O,-1.7487
B-4328,"carbamic acid, sulfamoyl-, butyl ester",GFBKOADVXIDVBA-UHFFFAOYSA-N,CCCCOC(=O)N[S](N)(=O)=O,-1.0375
B-4329,"carbamic acid, sulfamoyl-, 2-ethylhexyl ester",VBQMNYJZEYFKPQ-UHFFFAOYSA-N,CCCCC(CC)COC(=O)N[S](N)(=O)=O,-2.402
B-4330,bentazone,ZOMSMJKLGFBRBS-UHFFFAOYSA-N,CC(C)N1C(=O)c2ccccc2N[S]1(=O)=O,-2.6817
B-4331,"1,3-benzodioxole-5-acetic acid, .alpha.-oxo-",VIIPQXJHKXQJKY-UHFFFAOYSA-N,OC(=O)C(=O)c1ccc2OCOc2c1,-1.1912
B-4332,"phenanthrene-9,10-dione",YYVYAPXYZVYDHN-UHFFFAOYSA-N,O=C1C(=O)c2ccccc2c3ccccc13,-4.4435
B-4333,"1,3-benzenedicarboxylic acid, 2-(carboxycarbonyl)-",MKKVMUPZRDPRHL-UHFFFAOYSA-N,OC(=O)C(=O)c1c(cccc1C(O)=O)C(O)=O,-0.4541
B-4335,"3-pyrazoline-5-thione, 1,3-dimethyl-2-phenyl-",FXJSXNAIOUCSPT-UHFFFAOYSA-N,CN1N(C(=CC1=S)C)c2ccccc2,-1.6668
B-4336,"S-(1,2-Dichlorovinyl)-L-cysteine",PJIHCWJOTSJIPQ-AGFFZDDWSA-N,N[C@@H](CSC(/Cl)=C/Cl)C(O)=O,-1.4895
B-4337,"2-propanone, 1-(4,5-dihydro-2-thiazolyl)-",WHJUKZVLAVJEJZ-UHFFFAOYSA-N,CC(=O)CC1=NCCS1,-1.156
B-4338,"methanamine, 1-(trimethylsilyl)-",YVWPNDBYAAEZBF-UHFFFAOYSA-N,C[Si](C)(C)CN,-1.762
B-4339,"ethanamine, 2-(trimethylsilyl)-",NIBXVTMWHMMKGV-UHFFFAOYSA-N,C[Si](C)(C)CCN,-1.807
B-4341,tetraethylsilane,VCZQFJFZMMALHB-UHFFFAOYSA-N,CC[Si](CC)(CC)CC,-5.6475
B-4342,"(2,4-dimethylphenyl)phosphonic acid",DLXVLBCCGRQAAA-UHFFFAOYSA-N,Cc1ccc(c(C)c1)[P](O)(O)=O,-1.0938
B-4345,"phosphonic acid, 1-naphthalenyl-",YOOYVODKUBZAPO-UHFFFAOYSA-N,O[P](O)(=O)c1cccc2ccccc12,-1.6194
B-4346,paraquat dichloride,FIKAKWIAUPDISJ-UHFFFAOYSA-L,[Cl-].[Cl-].C[n+]1ccc(cc1)c2cc[n+](C)cc2,0.4349
B-4347,diquat dibromide,ODPOAESBSUKMHD-UHFFFAOYSA-L,[Br-].[Br-].C1C[n+]2ccccc2c3cccc[n+]13,0.3133
B-4348,furathiocarb,HAWJXYBZNNRMNO-UHFFFAOYSA-N,CCCCOC(=O)N(C)SN(C)C(=O)Oc1cccc2CC(C)(C)Oc12,-4.5412
B-4349,benfuracarb,FYZBOYWSHKHDMT-UHFFFAOYSA-N,CCOC(=O)CCN(SN(C)C(=O)Oc1cccc2CC(C)(C)Oc12)C(C)C,-4.7103
B-4350,carbosulfan,JLQUFIHWVLZVTJ-UHFFFAOYSA-N,CCCCN(CCCC)SN(C)C(=O)Oc1cccc2CC(C)(C)Oc12,-6.1033
B-4351,phenylmercuric acetate,XEBWQGVWTUSTLN-UHFFFAOYSA-M,CC(=O)O[Hg]c1ccccc1,-1.8868
B-4352,2-methoxyethyl mercuric chloride,VJTAZCKMHINUKO-UHFFFAOYSA-M,[Cl-].COCC[Hg+],-0.771
B-4353,mercuric acetate,BRMYZIKAHFEUFJ-UHFFFAOYSA-L,[Hg++].CC([O-])=O.CC([O-])=O,-0.1054
B-4354,formaldehyde,WSFSSNUMVMOOMR-UHFFFAOYSA-N,C=O,1.1206
B-4355,diacetylene,LLCSWKVOHICRDD-UHFFFAOYSA-N,C#CC#C,-0.7241
B-4357,2(3h)-thiophenone,NKAMYGXYCWMPTC-UHFFFAOYSA-N,O=C1CC=CS1,-0.2225
B-4359,dimethylsulfate,VAYGXNSJCAHWJZ-UHFFFAOYSA-N,CO[S](=O)(=O)OC,-0.6537
B-4360,"1-phenylpropane-1,2-dione",BVQVLAIMHVDZEL-UHFFFAOYSA-N,CC(=O)C(=O)c1ccccc1,-1.7558
B-4361,"2,3-butanedione",QSJXEFYPDANLFS-UHFFFAOYSA-N,CC(=O)C(C)=O,0.3661
B-4362,"pentane-2,3-dione",TZMFJUDUGYTVRY-UHFFFAOYSA-N,CCC(=O)C(C)=O,-0.1764
B-4363,hexanebis(thioic) acid,ICTIVTCHZRVVQR-UHFFFAOYSA-N,SC(=O)CCCCC(S)=O,-1.7326
B-4365,"propanoic acid,2-[(meo-carbonyl)oxy]-, me ester",YYQQVTLVYLTGPR-UHFFFAOYSA-N,COC(=O)OC(C)C(=O)OC,-0.6003
B-4367,chlorphoxim,GQKRUMZWUHSLJF-NTCAYCPXSA-N,CCO[P](=S)(OCC)O/N=C(C#N)/c1ccccc1Cl,-5.2917
B-4368,chlorthiamid,KGKGSIUWJCAFPX-UHFFFAOYSA-N,NC(=S)c1c(Cl)cccc1Cl,-2.3363
B-4369,"thiocyanic acid, 2-oxopropyl ester",HBEQAYDPEJTYND-UHFFFAOYSA-N,CC(=O)CSC#N,-0.2162
B-4370,"thiocyanic acid, 1,2,3-propanetriyl ester",DNFIEAXZRIFMMN-UHFFFAOYSA-N,N#CSCC(CSC#N)SC#N,-1.9351
B-4371,"benzenesulfonic acid, pentabromo-",ZMOIAEHZILNVCK-UHFFFAOYSA-N,O[S](=O)(=O)c1c(Br)c(Br)c(Br)c(Br)c1Br,-2.0061
B-4372,2-dibenzofuransulfonic acid,JANFYPHFIPGYTQ-UHFFFAOYSA-M,[O-][S](=O)(=O)c1ccc2oc3ccccc3c2c1,-0.4655
B-4375,carbon dioxide,CURLTUGMZLYLDI-UHFFFAOYSA-N,O=C=O,-1.4748
B-4377,pyributicarb,VTRWMTJQBQJKQH-UHFFFAOYSA-N,COc1cccc(n1)N(C)C(=S)Oc2cccc(c2)C(C)(C)C,-6.014
B-4378,endosulfan sulfate,AAPVQEMYVNZIOO-UHFFFAOYSA-N,ClC1=C(Cl)C2(Cl)C3CO[S](=O)(=O)OCC3C1(Cl)C2(Cl)Cl,-5.945
B-4379,propargite,ZYHMJXZULPZUED-UHFFFAOYSA-N,CC(C)(C)c1ccc(OC2CCCCC2O[S](=O)OCC#C)cc1,-5.8457
B-4381,a-endosulfan,RDYMFSUJUZBWLH-GDSHQCHSSA-N,ClC1=C(Cl)C2(Cl)[C@H]3CO[S](=O)OC[C@H]3[C@]1(Cl)C2(Cl)Cl,-5.9019
B-4382,"1,3,2-dioxathiolane, 2-oxide",WDXYVJKNSMILOQ-UHFFFAOYSA-N,O=[S]1OCCO1,0.2214
B-4383,sulfotepp,XIUROWKZWPIAIB-UHFFFAOYSA-N,CCO[P](=S)(OCC)O[P](=S)(OCC)OCC,-4.0312
B-4384,3-pyridinecarbothioic acid,OWDHSOUPMJJTFN-UHFFFAOYSA-N,OC(=S)c1cccnc1,-1.3801
B-4386,"propanoic acid, 2-[(ethoxythioxomethyl)thio]-",LWNPIVOFJQQAMH-UHFFFAOYSA-N,CCOC(=S)SC(C)C(O)=O,-1.4489
B-4392,"1,3,5-tribromobenzene",YWDUZLFWHVQCHY-UHFFFAOYSA-N,Brc1cc(Br)cc(Br)c1,-5.6004
B-4395,"2,4,6-tribromophenol",BSWWXRFVMJHFBN-UHFFFAOYSA-N,Oc1c(Br)cc(Br)cc1Br,-3.6745
B-4396,"2,4,6-trichloroaniline",NATVSFWWYVJTAZ-UHFFFAOYSA-N,Nc1c(Cl)cc(Cl)cc1Cl,-3.6912
B-4400,tropic acid,JACRWUWPXAESPB-UHFFFAOYSA-N,OCC(C(O)=O)c1ccccc1,-0.9305
B-4401,diphenic acid,GWZCCUDJHOGOSO-UHFFFAOYSA-N,OC(=O)c1ccccc1c2ccccc2C(O)=O,-2.2839
B-4402,o-hydroxybenzyl alcohol,CQRYARSYNCAZFO-UHFFFAOYSA-N,OCc1ccccc1O,-0.2946
B-4405,chlorotrifluoromethane,AFYPFACVUDMOHA-UHFFFAOYSA-N,FC(F)(F)Cl,-3.0647
B-4406,1-bromooctane,VMKOFRJSULQZRM-UHFFFAOYSA-N,CCCCCCCCBr,-5.0631
B-4407,halothane,BCQZXOMGPXTTIC-UHFFFAOYSA-N,FC(F)(F)C(Cl)Br,-1.7043
B-4410,alpha-glucose pentaacetate,UAOKXEHOENRFMP-ZJIFWQFVSA-N,CC(=O)OC[C@@H](OC(C)=O)[C@@H](OC(C)=O)[C@H](OC(C)=O)[C@@H](OC(C)=O)C=O,-2.4154
B-4411,4-aminoacetophenone,GPRYKVSEZCQIHD-UHFFFAOYSA-N,CC(=O)c1ccc(N)cc1,-1.6058
B-4418,hexamethylmelamine,UUVWYPNAQBNQJQ-UHFFFAOYSA-N,CN(C)c1nc(nc(n1)N(C)C)N(C)C,-3.3638
B-4419,3-hydroxy-5-methylisoxazole,KGVPNLBXJKTABS-UHFFFAOYSA-N,CC1=CC(=O)NO1,-0.0666
B-4420,1-napthylthiourea,PIVQQUNOTICCSA-UHFFFAOYSA-N,NC(=S)Nc1cccc2ccccc12,-2.5278
B-4421,n-phenylthiourea,FULZLIGZKMKICU-UHFFFAOYSA-N,NC(=S)Nc1ccccc1,-1.7898
B-4423,"2,3,7,8-tetrachlorodibenzo-p-dioxin",HGUFODBRKLSHSI-UHFFFAOYSA-N,Clc1cc2Oc3cc(Cl)c(Cl)cc3Oc2cc1Cl,-9.2068
B-4424,"1,2,3,4,6,7,8,9-octachlorodibenzo-p-dioxin",FOIBFBMSLDGNHL-UHFFFAOYSA-N,Clc1c(Cl)c(Cl)c2Oc3c(Cl)c(Cl)c(Cl)c(Cl)c3Oc2c1Cl,-12.0605
B-4426,"1,3,6,8-tetrachlorodibenzo-p-dioxin",OTQFXRBLGNEOGH-UHFFFAOYSA-N,Clc1cc(Cl)c2Oc3cc(Cl)cc(Cl)c3Oc2c1,-9.0027
B-4427,"2,7-dichlorodibenzo-p-dioxin",NBFMTHWVRBOVPE-UHFFFAOYSA-N,Clc1ccc2Oc3cc(Cl)ccc3Oc2c1,-7.8292
B-4428,"1,2,3,4,7,8-hexachlorodibenzo-p-dioxin",WCYYQNSQJHPVMG-UHFFFAOYSA-N,Clc1cc2Oc3c(Cl)c(Cl)c(Cl)c(Cl)c3Oc2cc1Cl,-10.9486
B-4430,"1,2,3,4,7-pentachlorodibenzo-p-dioxin",WRNGAZFESPEMCN-UHFFFAOYSA-N,Clc1ccc2Oc3c(Cl)c(Cl)c(Cl)c(Cl)c3Oc2c1,-9.4728
B-4431,"2,3,7,8-tetrachlorodibenzofuran",KSMVNVHUTQZITP-UHFFFAOYSA-N,Clc1cc2oc3cc(Cl)c(Cl)cc3c2cc1Cl,-8.6456
B-4432,"1,2,3,7-tetrachlorodibenzodioxin",SKGXYFVQZVPEFP-UHFFFAOYSA-N,Clc1ccc2Oc3c(Cl)c(Cl)c(Cl)cc3Oc2c1,-8.8744
B-4435,"2,2',3,3',6-pentachlorobiphenyl",QVWUJLANSDKRAH-UHFFFAOYSA-N,Clc1cccc(c1Cl)c2c(Cl)ccc(Cl)c2Cl,-6.7798
B-4439,salicylanilide,WKEDVNSFRWHDNR-UHFFFAOYSA-N,Oc1ccccc1C(=O)Nc2ccccc2,-3.5885
B-4440,benzoyl peroxide,OMPJBNCRMGITSC-UHFFFAOYSA-N,O=C(OOC(=O)c1ccccc1)c2ccccc2,-4.4252
B-4441,n4-acetylsulfanilamide,PKOFBDHYTMYVGJ-UHFFFAOYSA-N,CC(=O)Nc1ccc(cc1)[S](N)(=O)=O,-1.6066
B-4442,primidone,DQMZLTXERSFNPB-UHFFFAOYSA-N,CCC1(C(=O)NCNC1=O)c2ccccc2,-2.64
B-4447,creatinine,DDRJAANPRJIHGJ-UHFFFAOYSA-N,CN1CC(=O)N=C1N,-0.1499
B-4448,cycloheximide,YPHMISFOHDHNIV-FSZOTQKASA-N,C[C@H]1C[C@H](C)C(=O)[C@@H](C1)[C@H](O)CC2CC(=O)NC(=O)C2,-1.127
B-4449,trichloronitromethane,LFHISGNCFUNFFM-UHFFFAOYSA-N,[O-][N+](=O)C(Cl)(Cl)Cl,-2.0063
B-4450,2-ethyl-2-phenylgluterimide,JMBQKKAJIKAWKF-UHFFFAOYSA-N,CCC1(CCC(=O)NC1=O)c2ccccc2,-2.3374
B-4451,isosorbide dinitrate,MOYKHGMNXAOIAT-JGWLITMVSA-N,[O-][N+](=O)O[C@H]1CO[C@@H]2[C@@H](CO[C@H]12)O[N+]([O-])=O,-2.6328
B-4453,maleic hydrazide,BGRDGMRNKXEXQD-UHFFFAOYSA-N,O=C1NNC(=O)C=C1,-1.2714
B-4455,"2,6-dimethyl-4-pyrimidinamine",BJJDXAFKCKSLTE-UHFFFAOYSA-N,Cc1cc(N)nc(C)n1,-1.2843
B-4456,phenylbutazone,VYMDGNCVAMGZFE-UHFFFAOYSA-N,CCCCC1C(=O)N(N(C1=O)c2ccccc2)c3ccccc3,-3.8124
B-4457,pencillamine,VVNCNSJFMMFHPL-VKHMYHEASA-N,CC(C)(S)[C@@H](N)C(O)=O,-0.1285
B-4458,haloperidol,LNEPOXFFQSENCJ-UHFFFAOYSA-N,OC1(CCN(CCCC(=O)c2ccc(F)cc2)CC1)c3ccc(Cl)cc3,-4.4289
B-4459,chloramphenicol,WIIZWVCIJKGZOK-UHFFFAOYSA-N,OCC(NC(=O)C(Cl)Cl)C(O)c1ccc(cc1)[N+]([O-])=O,-2.1114
B-4460,strychnine,QMGVPVSNSZLJIA-FVWCLLPLSA-N,O=C1C[C@@H]2OCC=C3CN4CC[C@@]56[C@@H]4C[C@@H]3[C@@H]2[C@@H]5N1c7ccccc67,-3.3202
B-4463,aminopyrine,RMMXTBMQSGEXHJ-UHFFFAOYSA-N,CN(C)C1=C(C)N(C)N(c2ccccc2)C1=O,-0.6286
B-4464,perphenazine,RGCVKNLCSQQDEP-UHFFFAOYSA-N,OCCN1CCN(CCCN2c3ccccc3Sc4ccc(Cl)cc24)CC1,-4.1546
B-4465,promazine,ZGUGWUXLJSTTMA-UHFFFAOYSA-N,CN(C)CCCN1c2ccccc2Sc3ccccc13,-4.3017