ID,Name,InChIKey,SMILES,Solubility
A-3329,disodium dioxomolybdenumbis(olate),TVXXNOYZHKPKGW-UHFFFAOYSA-N,[Na+].[Na+].[O-][Mo]([O-])(=O)=O,0.5020204465
A-3330,iron(3+) chloride sulfate,NGYBMUURDZXEEA-UHFFFAOYSA-L,[Cl].[Fe].[O-][S]([O-])(=O)=O,0.540234161
A-3331,iron(3+) ion trichloride,RBTARNINKXHZNM-UHFFFAOYSA-K,[Cl-].[Cl-].[Cl-].[Fe+3],0.6028517968
A-3333,iron(+2) cation sulfate,BAUYGSIQEAFULO-UHFFFAOYSA-L,[Fe++].[O-][S]([O-])(=O)=O,0.6313327107
A-3335,sodium 3-({3-methoxy-4-[(4-methoxyphenyl)diazenyl]phenyl}diazenyl)benzenesulfonate,JGUAUYIJLLJIQS-UHFFFAOYSA-M,[Na+].COc1ccc(cc1)N=Nc2ccc(cc2OC)N=Nc3cccc(c3)[S]([O-])(=O)=O,-0.8354591701
A-3337,Pyrithione sodium,XNRNJIIJLOFJEK-UHFFFAOYSA-N,[Na+].[O-]N1C=CC=CC1=S,0.6370124426
A-3339,"sodium (2R)-2-[(1S)-1,2-dihydroxyethyl]-4-hydroxy-5-oxo-2,5-dihydrofuran-3-olate",IFVCRSPJFHGFCG-HXPAKLQESA-N,[Na+].OC[C@H](O)C1OC(=O)[C-](O)C1=O,0.5110430921
A-3340,nickel(2+) ion dichloride,QMMRZOWCJAIUJA-UHFFFAOYSA-L,[Cl-].[Cl-].[Ni++],0.6949333776
A-3342,"sodium (Z)-N-({3-[(4-amino-9,10-dioxo-3-sulfo-9,10-dihydroanthracen-1-yl)amino]-5-{[(Z)-(2-chloro-1-hydroxyethylidene)amino]methyl}-2,4,6-trimethylphenyl}methyl)-2-chloroethenecarboximidate",HVDUMYBPGXAPLG-UHFFFAOYSA-M,[Na+].Cc1c(CNC(=O)CCl)c(C)c(Nc2cc(c(N)c3C(=O)c4ccccc4C(=O)c23)[S]([O-])(=O)=O)c(C)c1CNC(=O)CCl,-1.0175519333
A-3344,3-methylbut-2-en-1-ol,ASUAYTHWZCLXAN-UHFFFAOYSA-N,CC(C)=CCO,-0.128994642
A-3345,calcium disulfamate,RSIPQRDGPVEGLE-UHFFFAOYSA-L,[Ca++].N[S]([O-])(=O)=O.N[S]([O-])(=O)=O,0.4388612162
A-3346,"hexane-1,6-diamine",NAQMVNRVTILPCV-UHFFFAOYSA-N,NCCCCCCN,0.7389034055
A-3347,sodium hydroxymethanesulfinate,XWGJFPHUCFXLBL-UHFFFAOYSA-M,[Na+].OC[S]([O-])=O,0.731520726
A-3348,1H-imidazole,RAXXELZNTBOGNW-UHFFFAOYSA-N,[nH]1ccnc1,0.9683905422
A-3349,sodium hydrogen (2S)-2-aminobutanedioate,WTWSHHITWMVLBX-DKWTVANSSA-M,[Na+].N[C@@H](CC(O)=O)C([O-])=O,0.6099273323
A-3352,manganese bis(dihydrogen phosphate),NAAXGLXYRDSIRS-UHFFFAOYSA-H,[Mn++].[O-][P]([O-])([O-])=O.[O-][P]([O-])([O-])=O,0.4103907799
A-3353,"1,1-dimethylpropyl hydroperoxide",XRXANEMIFVRKLN-UHFFFAOYSA-N,CCC(C)(C)OO,-0.2165945745
A-3354,2-phenylethan-1-amine,BHHGXPLMPWCGHP-UHFFFAOYSA-N,NCCc1ccccc1,-0.2823811698
A-3357,"4-hydroxy-2,2,6,6-tetramethylpiperidinoxyl",UZFMOKQJFYMBGY-UHFFFAOYSA-N,CC1(C)CC(O)CC(C)(C)N1[O],0.5627035438
A-3358,sodium 4(or 5)-methyl-1H-benzotriazolide,REERYFLJRPUSHT-UHFFFAOYSA-N,[Na+].Cc1cccc2n[n-]nc12,0.6051674279
A-3360,"oxolane-2,5-dione",RINCXYDBBGOEEQ-UHFFFAOYSA-N,O=C1CCC(=O)O1,-0.2016662739
A-3364,calcium dipropanoate,BCZXFFBUYPCTSJ-UHFFFAOYSA-L,[Ca++].CCC([O-])=O.CCC([O-])=O,-0.4769347221
A-3365,"2,2-bis(hydroxymethyl)propane-1,3-diol",WXZMFSXDPGVJKK-UHFFFAOYSA-N,OCC(CO)(CO)CO,-0.3416163866
A-3367,2-methylpropanoic anhydride,LSACYLWPPQLVSM-UHFFFAOYSA-N,CC(C)C(=O)OC(=O)C(C)C,0.5917902317
A-3369,sodium (2S)-5-oxopyrrolidine-2-carboxylate,CRPCXAMJWCDHFM-DFWYDOINSA-M,[Na+].[O-]C(=O)[C@@H]1CCC(=O)N1,0.6082046329
A-3370,"disodium 3-{[ethyl({4-[(4-{ethyl[(3-sulfonatophenyl)methyl]iminiumyl}cyclohexa-2,5-dien-1-ylidene)(2-sulfonatophenyl)methyl]phenyl})amino]methyl}benzene-1-sulfonate",SGHZXLIDFTYFHQ-UHFFFAOYSA-L,[Na+].[Na+].CCN(Cc1cccc(c1)[S]([O-])(=O)=O)c2ccc(cc2)[C+](c3ccc(cc3)N(CC)Cc4cccc(c4)[S]([O-])(=O)=O)c5ccccc5[S]([O-])(=O)=O,-0.1131580367
A-3371,disodium phosphonate,IIRVGTWONXBBAW-UHFFFAOYSA-M,[Na+].[Na+].[O-][P](=O)=O,0.689301474
A-3372,"2,2,4,4-tetramethylcyclobutane-1,3-diol",FQXGHZNSUOHCLO-UHFFFAOYSA-N,CC1(C)C(O)C(C)(C)C1O,-0.3736775878
A-3373,"tripotassium 2-hydroxypropane-1,2,3-tricarboxylate",QEEAPRPFLLJWCF-UHFFFAOYSA-K,[K+].[K+].[K+].OC(CC([O-])=O)(CC([O-])=O)C([O-])=O,0.2961937852
A-3374,"1,4-bis({3-[2-(2-hydroxyethoxy)ethoxy]propyl}amino)-9,10-dihydroanthracene-9,10-dione",FRFQXYOWMSJIJR-UHFFFAOYSA-N,OCCOCCOCCCNc1ccc(NCCCOCCOCCO)c2C(=O)c3ccccc3C(=O)c12,0.0571886956
A-3375,acetic acid,QTBSBXVTEAMEQO-UHFFFAOYSA-N,CC(O)=O,1.0017178079
A-3376,2-oxopentanedioic acid,KPGXRSRHYNQIFN-UHFFFAOYSA-N,OC(=O)CCC(=O)C(O)=O,0.6148800726
A-3377,disodium 3-[(3-sulfonatopropyl)disulfanyl]propane-1-sulfonate,WIYCQLLGDNXIBA-UHFFFAOYSA-L,[Na+].[Na+].[O-][S](=O)(=O)CCCSSCCC[S]([O-])(=O)=O,0.2286526355
A-3379,2-methylprop-2-enal,STNJBCKSHOAVAJ-UHFFFAOYSA-N,CC(=C)C=O,-0.0675110058
A-3380,2-methylpropanal,AMIMRNSIRUDHCM-UHFFFAOYSA-N,CC(C)C=O,-0.0798261768
A-3381,"O,O-diisopropyl hydrogen dithiophosphate",SZXCCXFNQHQRGF-UHFFFAOYSA-N,CC(C)O[P](S)(=S)OC(C)C,-0.5528547078
A-3385,"N,2,3-trimethyl-2-(propan-2-yl)butanamide",RWAXQWRDVUOOGG-UHFFFAOYSA-N,CNC(=O)C(C)(C(C)C)C(C)C,-1.3948677058
A-3387,carbonyl dichloride,YGYAWVDWMABLBF-UHFFFAOYSA-N,ClC(Cl)=O,-1.1608458422
A-3389,2-[1-(carboxymethyl)cyclohexyl]acetic acid,YQPCHPBGAALCRT-UHFFFAOYSA-N,OC(=O)CC1(CCCCC1)CC(O)=O,-1.4722340504
A-3390,strontium,CIOAGBVUUVVLOB-UHFFFAOYSA-N,[Sr],-1.1139433523
A-3391,(2S)-5-amino-2-[(2-aminoacetyl)amino]-5-oxopentanoic acid,PNMUAGGSDZXTHX-BYPYZUCNSA-N,NC(=O)CC[C@H](NC(=O)C[NH3+])C([O-])=O,-0.194310278
A-3392,"3,10-diamino-2-{[6-(4-tert-butylbenzenesulfonamido)naphthalen-2-yl]sulfonyl}-6,13-dichloro-5,12-dioxa-7,14-diazapentacene-4,11-disulfonic acid lithium potassium sodium",PDTCPVSOIVGWMZ-UHFFFAOYSA-N,[Li].[Na].[K].CC(C)(C)c1ccc(cc1)[S](=O)(=O)Nc2ccc3cc(ccc3c2)[S](=O)(=O)c4cc5N=C6C(=C7Oc8c(ccc(N)c8[S](O)(=O)=O)N=C7C(=C6Oc5c(c4N)[S](O)(=O)=O)Cl)Cl,-2.1807658976
A-3393,(methylsulfanyl)ethane,WXEHBUMAEPOYKP-UHFFFAOYSA-N,CCSC,-1.0569732819
A-3397,benzaldehyde,HUMNYLRZRPPJDN-UHFFFAOYSA-N,O=Cc1ccccc1,-1.2095723109
A-3398,2-hydroperoxy-2-(2-hydroperoxybutan-2-ylperoxy)butane,WFUGQJXVXHBTEM-UHFFFAOYSA-N,CCC(C)(OO)OOC(C)(CC)OO,-1.5077732457
A-3399,2-(methylamino)-1-phenylpropan-1-ol,KWGRBVOPPLSCSI-WCBMZHEXSA-N,CN[C@@H](C)[C@@H](O)c1ccccc1,-1.4051913165
A-3401,ethyl 2-methylpropanoate,WDAXFOBOLVPGLV-UHFFFAOYSA-N,CCOC(=O)C(C)C,-1.2554968887
A-3402,sulfanylidenestrontium,XXCMBPUMZXRBTN-UHFFFAOYSA-N,S=[Sr],0.0036602887
A-3403,"1,3-dihydro-2-benzofuran-1,3-dione",LGRFSURHDFAFJT-UHFFFAOYSA-N,O=C1OC(=O)c2ccccc12,-1.3644249332
A-3404,"(E)-1,2-dichloroethene",KFUSEUYYWQURPO-OWOJBTEDSA-N,Cl\C=C\Cl,-1.1871803857
A-3407,quinoline,SMWDFEZZVXVKRB-UHFFFAOYSA-N,c1ccc2ncccc2c1,-1.325093551
A-3409,1-phenylethan-1-one; 2-phenylpropan-2-ol; phenol,UJAOROLGXQHBAO-UHFFFAOYSA-N,CC(=O)c1ccccc1.CC(C)(O)c2ccccc2.Oc3ccccc3,-1.7593061432
A-3410,"disodium 1-amino-4-(4-amino-9,10-dioxo-3-sulfonato-9,10-dihydroanthracen-1-yl)-9,10-dioxo-9,10-dihydroanthracene-2-sulfonate",OKHQKAVALRCESS-UHFFFAOYSA-L,[Na+].[Na+].Nc1c2C(=O)c3ccccc3C(=O)c2c(cc1[S]([O-])(=O)=O)c4cc(c(N)c5C(=O)c6ccccc6C(=O)c45)[S]([O-])(=O)=O,-2.0301800533
A-3411,1-ethylpiperidine,HTLZVHNRZJPSMI-UHFFFAOYSA-N,CCN1CCCCC1,-1.2757105223
A-3412,2-amino-5-methylbenzene-1-sulfonic acid,LTPSRQRIPCVMKQ-UHFFFAOYSA-N,Cc1ccc(N)c(c1)[S](O)(=O)=O,-1.4942009905
A-3414,"bis(2-phenyl-4,5-dihydro-1H-imidazole); benzene-1,2,4,5-tetracarboxylic acid",XSMMIZPIWZYHNL-UHFFFAOYSA-N,OC(=O)c1cc(C(O)=O)c(cc1C(O)=O)C(O)=O.C2CN=C(N2)c3ccccc3.C4CN=C(N4)c5ccccc5,-1.9594675236
A-3416,imidazolidin-2-one,YAMHXTCMCPHKLN-UHFFFAOYSA-N,O=C1NCCN1,0.8402733738
A-3418,iron(+3) cation; oxygen(-2) anion,LIKBJVNGSGBSGK-UHFFFAOYSA-N,[O--].[O--].[O--].[Fe+3].[Fe+3],-3.7261483073
A-3420,bis(hydroxyazanium) sulfate,VGYYSIDKAKXZEE-UHFFFAOYSA-L,[NH3+]O.[NH3+]O.[O-][S]([O-])(=O)=O,0.553426318
A-3421,dichlorocobalt,GVPFVAHMJGGAJG-UHFFFAOYSA-L,[Cl-].[Cl-].[Co++],0.654418336
A-3423,potassium pentahydrogen diphosphate,GNSKLFRGEWLPPA-UHFFFAOYSA-N,[K+].O[P](O)(O)=O,0.6286564425
A-3430,potassium (2S)-4-carboxy-2-tetradecanamidobutanoate,KYLDDUZJZSKJER-NTISSMGPSA-M,[K+].CCCCCCCCCCCCCC(=O)N[C@@H](CCC(O)=O)C([O-])=O,-0.8308225769
A-3432,"1,3-bis(acetyloxy)propan-2-yl acetate",URAYPUMNDPQOKB-UHFFFAOYSA-N,CC(=O)OCC(COC(C)=O)OC(C)=O,-0.5754367043
A-3433,"2,2-dimethyloxirane",GELKGHVAFRCJNA-UHFFFAOYSA-N,CC1(C)CO1,-0.0945494336
A-3434,hexyl D-glucoside,JVAZJLFFSJARQM-OZRWLHRGSA-N,CCCCCCOC1O[C@H](CO)[C@@H](O)[C@H](O)[C@H]1O,-0.6586987459
A-3435,"2-hydroxypropane-1,2,3-tricarboxylic acid",KRKNYBCHXYNGOX-UHFFFAOYSA-N,OC(=O)CC(O)(CC(O)=O)C(O)=O,0.4768431239
A-3437,"1H-1,2,4-triazol-3-amine",KLSJWNVTNUYHDU-UHFFFAOYSA-N,Nc1[nH]ncn1,0.8326929954
A-3438,"tris(2-hydroxyethyl)-1,3,5-triazinane-2,4,6-trione",BPXVHIRIPLPOPT-UHFFFAOYSA-N,OCCN1C(=O)N(CCO)C(=O)N(CCO)C1=O,0.3403663284
A-3439,"sodium dihydrogen 2-hydroxypropane-1,2,3-tricarboxylate",HWPKGOGLCKPRLZ-UHFFFAOYSA-M,[Na+].OC(=O)CC(O)(CC(O)=O)C([O-])=O,0.4252480462
A-3441,"disodium 1-amino-4-[[4-[(2-bromo-1-oxoallyl)amino]-2-sulphonatophenyl]amino]-9,10-dihydro-9,10-dioxoanthracene-2-sulphonate",BCENAVMKNRCXMQ-UHFFFAOYSA-L,[Na+].[Na+].Nc1c2C(=O)c3ccccc3C(=O)c2c(Nc4ccc(NC(=O)C(Br)=C)cc4[S]([O-])(=O)=O)cc1[S]([O-])(=O)=O,-1.0618038915
A-3442,"disodium 4,4'-bis[[4-anilino-6-[(2-carbamoylethyl)(2-hydroxyethyl)amino]-1,3,5,-triazin-2-yl]amino]stilbene-2,2'-disulphonate",KXZDXBWYWMOFCR-YHPRVSEPSA-L,[Na+].[Na+].NC(=O)CCN(CCO)c1nc(Nc2ccccc2)nc(Nc3ccc(\C=C\c4ccc(Nc5nc(Nc6ccccc6)nc(n5)N(CCO)CCC(N)=O)cc4[S]([O-])(=O)=O)c(c3)[S]([O-])(=O)=O)n1,-1.2475609958
A-3444,xylose,SRBFZHDQGSBBOR-UHFFFAOYSA-N,OC1COC(O)C(O)C1O,0.5778808511
A-3445,"2,4-dihydroxy-N-(3-hydroxypropyl)-3,3-dimethylbutanamide",SNPLKNRPJHDVJA-UHFFFAOYSA-N,CC(C)(CO)C(O)C(=O)NCCCO,0.4376764541
A-3446,"(2R,3R)-2,3-dihydroxybutanedioic acid",FEWJPZIEWOKRBE-UHFFFAOYSA-N,OC(C(O)C(O)=O)C(O)=O,0.5718478438
A-3447,[(bis{6-[bis(phosphonomethyl)amino]hexyl}amino)methyl]phosphonic acid,YWMWZKYVGNWJPU-UHFFFAOYSA-N,O[P](O)(=O)CN(CCCCCCN(C[P](O)(O)=O)C[P](O)(O)=O)CCCCCCN(C[P](O)(O)=O)C[P](O)(O)=O,-0.0877655775
A-3448,potassium hydrogen tartarate,KYKNRZGSIGMXFH-ZVGUSBNCSA-M,[K+].O[C@H]([C@@H](O)C([O-])=O)C(O)=O,0.4736237944
A-3452,dimethyl 2-acetylsuccinate,XREKLQOUFWBSFH-UHFFFAOYSA-N,COC(=O)CC(C(C)=O)C(=O)OC,-0.5248348408
A-3453,palladium(2+) ion tetraamine dihydrogen carbonate,QYYPTZGPXKUKRM-UHFFFAOYSA-L,N.N.N.N.[Pd++].OC([O-])=O.OC([O-])=O,-0.7223996879
A-3459,2-{[4-(oxiran-2-ylmethoxy)butoxy]methyl}oxirane,SHKUUQIDMUMQQK-UHFFFAOYSA-N,C(CCOCC1CO1)COCC2CO2,-0.5608137387
A-3460,palladium(2+) dichloride,PIBWKRNGBLPSSY-UHFFFAOYSA-L,[Cl-].[Cl-].[Pd++],-0.5036976261
A-3461,sodium hydrogensulphide,HYHCSLBZRBJJCH-UHFFFAOYSA-M,[Na+].[SH-],0.990088732
A-3462,beta-alanine,UCMIRNVEIXFBKS-UHFFFAOYSA-N,NCCC(O)=O,0.7865480446
A-3463,"6-methoxy-2-N-methylpyridine-2,3-diamine dihydrochloride",GYLCRBBRGGGHBS-UHFFFAOYSA-N,[H+].[H+].[Cl-].[Cl-].CNc1nc(OC)ccc1N,0.3819230911
A-3464,2-(sec-butylamino)ethanol,YTVUVYDVQNALCM-UHFFFAOYSA-N,CCC(C)NCCO,0.6667009337
A-3467,"bis(2-hydroxypropane-1,2,3-tricarboxylic acid); tris(piperazine)",SWDXALWLRYIJHK-UHFFFAOYSA-N,OC(=O)CC(O)(CC(O)=O)C(O)=O.C1CNCCN1,0.2879414183
A-3468,disodium disulphite,LDTLADDKFLAYJA-UHFFFAOYSA-L,[Na+].[Na+].[O-][S](=O)O[S]([O-])=O,0.4533910824
A-3469,(E)-1-methyl-3-nitro-2-(oxolan-3-ylmethyl)guanidine,YKBZOVFACRVRJN-UHFFFAOYSA-N,CN=C(NCC1CCOC1)N[N+]([O-])=O,-0.5694147178
A-3472,ethyl 3-ethoxypropanoate,BHXIWUJLHYHGSJ-UHFFFAOYSA-N,CCOCCC(=O)OCC,-0.4317085178
A-3473,N-methylcyclohexanamine,XTUVJUMINZSXGF-UHFFFAOYSA-N,CNC1CCCCC1,-0.3214680129
A-3475,methyl cyanoacetate,ANGDWNBGPBMQHW-UHFFFAOYSA-N,COC(=O)CC#N,-0.2636316857
A-3476,sodium 2-hydroxyethanesulfonate,LADXKQRVAFSPTR-UHFFFAOYSA-M,[Na+].OCC[S]([O-])(=O)=O,0.5569422141
A-3477,"N,N,N-triethylethanaminium 1,1,2,2,3,3,4,4,5,5,6,6,7,7,8,8,8-heptadecafluorooctane-1-sulfonate",JHDXAQHGAJXNBY-UHFFFAOYSA-M,CC[N+](CC)(CC)CC.[O-][S](=O)(=O)C(F)(F)C(F)(F)C(F)(F)C(F)(F)C(F)(F)C(F)(F)C(F)(F)C(F)(F)F,-0.0721808988
A-3480,disodium (Z)-1-(octadec-9-enyl) 2-sulphonatosuccinate,IUCZYYMCWMKCMD-TTWKNDKESA-L,[Na+].[Na+].CCCCCCCC/C=C/CCCCCCCCOC(=O)C(CC([O-])=O)[S]([O-])(=O)=O,-0.962426912
A-3481,ethyl 2-cyanoacetate,ZIUSEGSNTOUIPT-UHFFFAOYSA-N,CCOC(=O)CC#N,-0.3276124069
A-3482,"4-[4-[[2,5-dimethoxy-4-[[2-(sulphooxy)ethyl]sulphonyl]phenyl]azo]-4,5-dihydro-3-methyl-5-oxo-1H-pyrazol-1-yl]benzenesulphonic acid, sodium salt",JDPMQBDNRSLOKS-UHFFFAOYSA-L,[Na+].[Na+].COc1cc(c(OC)cc1N=NC2C(=NN(C2=O)c3ccc(cc3)[S]([O-])(=O)=O)C)[S](=O)(=O)CCO[S]([O-])(=O)=O,-0.0898430335
A-3483,"disodium hydrogen 2-hydroxypropane-1,2,3-tricarboxylate",CEYULKASIQJZGP-UHFFFAOYSA-L,[Na+].[Na+].OC(=O)C(O)(CC([O-])=O)CC([O-])=O,0.3454130072
A-3487,2-methylpentanedinitrile,FPPLREPCQJZDAQ-UHFFFAOYSA-N,CC(CCC#N)C#N,-0.3155007402
A-3488,1-butoxypropan-2-ol,RWNUSVWFHDHRCJ-UHFFFAOYSA-N,CCCCOCC(C)O,-0.4052379668
A-3490,"2H-1,3-dioxol-2-one",VAYTZRYEBVHVLE-UHFFFAOYSA-N,O=C1OC=CO1,0.7770765429
A-3492,sodium [(2-methylpropoxy)methanethioyl]sulfanide,LRHOHFCSKBRDFH-UHFFFAOYSA-N,[Na+].CCC(C)OC(S)=S,0.4688768793
A-3495,3-(2-hydroxyethyl)-p-phenylenediammonium sulphate,PYHIZOBOFKBJLD-UHFFFAOYSA-L,CC(O)c1cc(N)ccc1N.[O-][S]([O-])(=O)=O,-0.6856367901
A-3496,"4-methyl-1,3-oxazole-5-carbonitrile",JZSLPQXOLZCAME-UHFFFAOYSA-N,Cc1ncoc1C#N,-0.324555733
A-3497,cadmium dinitrate,IZIPRBSCGMISKX-UHFFFAOYSA-N,[Cd++].O[N+]([O-])=O.O[N+]([O-])=O,0.3276361318
A-3498,sodium (ethoxymethanethioyl)sulfanide,RZFBEFUNINJXRQ-UHFFFAOYSA-M,[Na+].CCOC([S-])=S,0.5443381649
A-3500,"octane-1,8-diamine",ZFLWZOGXFQNIMT-UHFFFAOYSA-N,[Cl-].[Cl-].[NH3+]CCCCCCCC[NH3+],0.3621421768
A-3501,"(3S,4aS,8aR)-N-tert-butyl-3,4,4a,5,6,7,8,8a-octahydro-1H-isoquinolin-2-ium-3-carboxamide",UPZBXVBPICTBDP-SRVKXCTJSA-O,CC(C)(C)NC(=O)[C@@H]1C[C@@H]2CCCC[C@H]2C[NH2+]1,-2.1616093611
A-3502,"hexane-1,6-diol",XXMIOPMDWAUFGU-UHFFFAOYSA-N,OCCCCCCO,1.6264407184
A-3503,2-(dimethylamino)ethyl 2-methylprop-2-enoate,JKNCOURZONDCGV-UHFFFAOYSA-N,CN(C)CCOC(=O)C(C)=C,0.5024815492
A-3504,"disodium 2,3-dihydroxybutanedioate",HELHAJAZNSDZJO-UHFFFAOYSA-L,[Na+].[Na+].OC(C(O)C([O-])=O)C([O-])=O,0.4110563573
A-3505,triethyl phosphate,DQWPFSLDHJDLRL-UHFFFAOYSA-N,CCO[P](=O)(OCC)OCC,0.4385265234
A-3506,5-oxo-DL-proline,ODHCTXKNWHHXJC-UHFFFAOYSA-N,OC(=O)C1CCC(=O)N1,-0.4042589172
A-3508,butyraldehyde,ZTQSAGDEMFDKMZ-UHFFFAOYSA-N,CCCC=O,-0.1590074228
A-3512,thiolane,RAOIDOHSFRTOEL-UHFFFAOYSA-N,C1CCSC1,-1.1819174748
A-3514,phenyl acetate,IPBVNPXQWQGGJP-UHFFFAOYSA-N,CC(=O)Oc1ccccc1,-1.3735951623
A-3515,chloroethane,HRYZWHHZPQKTII-UHFFFAOYSA-N,CCCl,-1.0507488092
A-3516,"4,6-dichloropyrimidine",XJPZKYIHCLDXST-UHFFFAOYSA-N,Clc1cc(Cl)ncn1,-1.4172531143
A-3517,"trisodium 4-amino-5-hydroxy-3-[(E)-2-{4-[(E)-2-[2-oxo-1-(phenylcarbamoyl)propyl]diazen-1-yl]phenyl}diazen-1-yl]-6-[(E)-2-(4-sulfonatonaphthalen-1-yl)diazen-1-yl]naphthalene-2,7-disulfonate",ZZXARQYSWIVLGM-ICCBSFAUSA-K,[Na+].[Na+].[Na+].CC(=O)C(N=Nc1ccc(cc1)N=Nc2c(N)c3c(cc2[S]([O-])(=O)=O)C=C(\C(=N/Nc4ccc(c5ccccc45)[S]([O-])(=O)=O)C3=O)[S]([O-])(=O)=O)C(=O)Nc6ccccc6,-2.2180283184
A-3518,"2,4-dimethylaniline",CZZZABOKJQXEBO-UHFFFAOYSA-N,Cc1ccc(N)c(C)c1,-1.3352536727
A-3519,2-chloroaniline,AKCRQHGQIJBRMN-UHFFFAOYSA-N,Nc1ccccc1Cl,-1.3575741458
A-3521,phenyl diamidophosphate,AYRRNFHDJUXLEQ-UHFFFAOYSA-N,N[P](N)(=O)Oc1ccccc1,-1.4876534031
A-3523,"sodium 2-{[4-(cyclohexylamino)-9,10-dioxo-9,10-dihydroanthracen-1-yl]amino}-5-ethoxybenzene-1-sulfonate",OOGKHVOWEZVKKU-UHFFFAOYSA-M,[Na+].CCOc1cccc2C(=O)c3c(Nc4ccccc4[S]([O-])(=O)=O)ccc(NC5CCCCC5)c3C(=O)c12,-1.9878367861
A-3525,"2-methylpentane-1,5-diamine",JZUHIOJYCPIVLQ-UHFFFAOYSA-N,CC(CN)CCCN,-1.3272487005
A-3526,"6-amino-1,3-dimethyl-1,2,3,4-tetrahydropyrimidine-2,4-dione",VFGRNTYELNYSKJ-UHFFFAOYSA-N,CN1C(=CC(=O)N(C)C1=O)N,-1.4535787311
A-3527,6-pent-3-en-1-yltetrahydro-2H-pyran-2-one,NBCMACYORPIYNY-NSCUHMNNSA-N,C/C=C/CCC1CCCC(=O)O1,-1.4887262913
A-3528,potassium tetrafluoroboranuide,AKEBROIVCDHVSD-UHFFFAOYSA-N,[K+].F[B-](F)(F)F,-1.3676388693
A-3530,2-hydroxy-3-phenoxypropyl prop-2-enoate,FOKZHJCFBNVOAV-LUAWRHEFSA-N,CCCOC(=O)C(/O)=C/Oc1ccccc1,-1.6225463588
A-3532,"2,6-diamino-1,4-dihydropyrimidin-4-one",SWELIMKTDYHAOY-UHFFFAOYSA-N,NC1=CC(=O)N=C(N)N1,-1.378146596
A-3533,3-amino-2-chloro-6-methylphenol,XYRDGCCCBJITBH-UHFFFAOYSA-N,Cc1ccc(N)c(Cl)c1O,-1.4815528695
A-3534,Diazobarbituric acid,HBZLKQCYQCZGAN-UHFFFAOYSA-N,[N-]=[N+]=C1C(=O)NC(=O)NC1=O,-1.4717570191
A-3536,"oxydipropane-1,2-diyl bisacrylate",RNJVAUBBYGWVBF-UHFFFAOYSA-N,CC(COCC(C)OC(=O)C=C)OC(=O)C=C,-1.6682980883
A-3537,pyridine-4-carboxylic acid,TWBYWOBDOCUKOW-UHFFFAOYSA-N,OC(=O)c1ccncc1,-1.3759670992
A-3538,"1,4-dithiane-2,5-diol",YUIOPHXTILULQC-UHFFFAOYSA-N,OC1CSC(O)CS1,-1.4690382322
A-3539,6-chlorohexan-2-one,CMDIDTNMHQUVPE-UHFFFAOYSA-N,CC(=O)CCCCCl,-1.4155738757
A-3540,"4-(3-methyl-5-oxo-4,5-dihydro-1H-pyrazol-1-yl)benzenesulfonic acid",CWJQQASJVVAXKL-UHFFFAOYSA-N,CC1=NN(C(=O)C1)c2ccc(cc2)[S](O)(=O)=O,-1.6926402974
A-3542,toluenesulphonamide,YCMLQMDWSXFTIF-UHFFFAOYSA-N,Cc1ccccc1[S](N)(=O)=O,-1.5259868531
A-3543,1-(6-methyl-2-oxohexahydropyrimidin-4-yl)urea,CZAUMIGWDFREBR-UHFFFAOYSA-N,CC1CC(NC(N)=O)NC(=O)N1,-1.5314234319
A-3544,"2-methylbenzene-1,4-diamine; sulfuric acid",KZTWOUOZKZQDMN-UHFFFAOYSA-N,Cc1cc(N)ccc1N.O[S](O)(=O)=O,-1.641347932
A-3547,3-(trifluoromethyl)aniline,VIUDTWATMPPKEL-UHFFFAOYSA-N,Nc1cccc(c1)C(F)(F)F,-1.5081956214
A-3548,"4,4'-methylenebis(cyclohexylamine)",DZIHTWJGPDVSGE-UHFFFAOYSA-N,NC1CCC(CC1)CC2CCC(N)CC2,-1.6240034803
A-3549,"N-(2,5-dimethoxyphenyl)acetamide",HOZRMSVNIKYCMB-UHFFFAOYSA-N,COc1ccc(OC)c(NC(C)=O)c1,-1.5915498548
A-3551,potassium 4-(propan-2-yl)benzene-1-sulfonate,RVRONQZKSCNZRS-UHFFFAOYSA-M,[K+].CC(C)c1ccc(cc1)[S]([O-])(=O)=O,0.3208872115
A-3552,ammonium carbamate,SFWLALIEAXEULE-UHFFFAOYSA-N,[NH4+].O.NC([O-])=O,0.7115939977
A-3553,sodium 4-(propan-2-yl)benzene-1-sulfonate,QEKATQBVVAZOAY-UHFFFAOYSA-M,[Na+].CC(C)c1ccc(cc1)[S]([O-])(=O)=O,0.3460227367
A-3555,trimethyl-3-[(1-oxo-10-undecenyl)amino]propylammonium methyl sulphate,MQMUSWOUVRONBK-UHFFFAOYSA-N,CO[S]([O-])(=O)=O.C[N+](C)(C)CCCNC(=O)CCCCCCCCC=C,0.0940632129
A-3557,"disodium bicyclo[3.3.1]tetraboroxane-3,7-bis(olate)",OJPFLODMGUZMKD-UHFFFAOYSA-N,O.O.O.O.O.O.O.O.O.O.[Na+].[Na+].[O-]B(OB=O)OB([O-])OB=O,-0.8846418847
A-3558,2-aminopyridin-3-ol,BMTSZVZQNMNPCT-UHFFFAOYSA-N,Nc1ncccc1O,-0.3461061519
A-3560,1-ethenylazepan-2-one,JWYVGKFDLWWQJX-UHFFFAOYSA-N,C=CN1CCCCCC1=O,-0.4507860761
A-3561,3-methyl-4-oxobut-2-en-1-yl acetate,LPDDKAJRWGPGSI-ZZXKWVIFSA-N,CC(=O)OC\C=C(/C)C=O,-0.4607939818
A-3562,boric acid,KGBXLFKZBHKPEV-UHFFFAOYSA-N,OB(O)O,-0.0992552152
A-3563,calcium hydrogen borate,VLCLHFYFMCKBRP-UHFFFAOYSA-N,[Ca++].[Ca++].[Ca++].[O-]B([O-])[O-].[O-]B([O-])[O-],-0.6843417048
A-3564,hexapotassium dihydrogen borate hydrogen borate borate,AENYAMPVQFAKHY-UHFFFAOYSA-N,[K].OB(O)O,-0.3120594734
A-3566,"2,2-bis(hydroxymethyl)butanoic acid",JVYDLYGCSIHCMR-UHFFFAOYSA-N,CCC(CO)(CO)C(O)=O,0.5168038544
A-3567,lead(2+) ion dinitrate,RLJMLMKIBZAXJO-UHFFFAOYSA-N,[Pb++].[O-][N+]([O-])=O.[O-][N+]([O-])=O,0.1665354511
A-3569,trisodium 2-({2-[bis(carboxylatomethyl)amino]ethyl}(2-hydroxyethyl)amino)acetate,WHNXAQZPEBNFBC-UHFFFAOYSA-K,[Na+].[Na+].[Na+].OCCN(CCN(CC([O-])=O)CC([O-])=O)CC([O-])=O,0.1444215392
A-3577,"disodium 5-({4-[bis(2-hydroxyethyl)amino]-6-(phenylamino)-1,3,5-triazin-2-yl}amino)-2-{2-[4-({4-[bis(2-hydroxyethyl)amino]-6-(phenylamino)-1,3,5-triazin-2-yl}amino)-2-sulfonatophenyl]ethenyl}benzene-1-sulfonate",YJHDFAAFYNRKQE-YHPRVSEPSA-L,[Na+].[Na+].OCCN(CCO)c1nc(Nc2ccccc2)nc(Nc3ccc(\C=C\c4ccc(Nc5nc(Nc6ccccc6)nc(n5)N(CCO)CCO)cc4[S]([O-])(=O)=O)c(c3)[S]([O-])(=O)=O)n1,-1.29966008
A-3578,zinc bis(2-hydroxypropanoate),CANRESZKMUPMAE-UHFFFAOYSA-L,[Zn++].CC(O)C([O-])=O.CC(O)C([O-])=O,-0.7035054305
A-3582,3-methylbutanoic acid,GWYFCOCPABKNJV-UHFFFAOYSA-N,CC(C)CC(O)=O,-0.3279248515
A-3594,"trilithium 2-hydroxypropane-1,2,3-tricarboxylate tetrahydrate",HXGWMCJZLNWEBC-UHFFFAOYSA-K,[Li+].[Li+].[Li+].O.O.O.O.OC(CC([O-])=O)(CC([O-])=O)C([O-])=O,0.2218764714
A-3596,(2S)-3-methyl-2-[pentanoyl-[[4-[2-(2H-tetrazol-5-yl)phenyl]phenyl]methyl]amino]butanoic acid,ACWBQPMHZXGDFX-QFIPXVFZSA-N,CCCCC(=O)N(Cc1ccc(cc1)c2ccccc2c3n[nH]nn3)[C@@H](C(C)C)C(O)=O,-2.7359260939
A-3599,2-[(2-hydroxyethyl)(phenyl)amino]ethan-1-ol,OJPDDQSCZGTACX-UHFFFAOYSA-N,OCCN(CCO)c1ccccc1,-0.5833809314
A-3601,ethyl methyl carbonate,JBTWLSYIZRCDFO-UHFFFAOYSA-N,CCOC(=O)OC,-0.3444506814
A-3602,magnesium(2+) ion dichloride,TWRXJAOTZQYOKJ-UHFFFAOYSA-L,[Mg++].[Cl-].[Cl-],0.6922078269
A-3603,"hexane-1,6-diamine; hexanedioic acid",UFFRSDWQMJYQNE-UHFFFAOYSA-N,NCCCCCCN.OC(=O)CCCCC(O)=O,0.2513647845