ID,Name,InChIKey,SMILES,Solubility
B-1115,ethyl valerate,ICMAFTSLXCXHRK-UHFFFAOYSA-N,CCCCC(=O)OCC,-1.7706
B-1117,2-methylpropyl propanoate,FZXRXKLUIMKDEL-UHFFFAOYSA-N,CCC(=O)OCC(C)C,-1.8841
B-1118,"cyclopropane, methoxy-",ZUVAACFIEPYYOP-UHFFFAOYSA-N,COC1CC1,-0.1176
B-1119,"1,2-ethylene dibromide",UWTUEMKLYAGTNQ-UPHRSURJSA-N,Br\C=C/Br,-1.3195
B-1120,2-bromoethanol,LDLCZOVUSADOIV-UHFFFAOYSA-N,OCCBr,0.9032
B-1121,ethyl methyl ether,XOBKSJJDNFUZPF-UHFFFAOYSA-N,CCOC,-0.0799
B-1122,"1,2-dimethylhydrazine",DIIIISSCIXVANO-UHFFFAOYSA-N,CNNC,1.2211
B-1123,"2,2,4-trimethylpentane",NHTMVDHEPJAVLT-UHFFFAOYSA-N,CC(C)CC(C)(C)C,-4.6704
B-1124,t-butyl acetate,WMOVHXAZOJBABW-UHFFFAOYSA-N,CC(=O)OC(C)(C)C,-1.1443
B-1125,dodecamethylcyclohexasiloxane,IUMSDRXLFWAGNT-UHFFFAOYSA-N,C[Si]1(C)O[Si](C)(C)O[Si](C)(C)O[Si](C)(C)O[Si](C)(C)O[Si](C)(C)O1,-7.9407
B-1126,decamethylcyclopentasiloxane,XMSXQFUHVRWGNA-UHFFFAOYSA-N,C[Si]1(C)O[Si](C)(C)O[Si](C)(C)O[Si](C)(C)O[Si](C)(C)O1,-7.3387
B-1127,dichloro(2-chlorovinyl)arsine (trans),GIKLTQKNOXNBNY-OWOJBTEDSA-N,Cl/C=C/[As](Cl)Cl,-2.6177
B-1128,"1,1-dichlorobutane",SEQRDAAUNCRFIT-UHFFFAOYSA-N,CCCC(Cl)Cl,-2.4036
B-1129,barium formate,UXFOSWFWQAUFFZ-UHFFFAOYSA-L,[Ba++].[O-]C=O.[O-]C=O,-0.0557
B-1130,"butanoic acid, 3-amino-",OQEBBZSWEGYTPG-UHFFFAOYSA-N,CC(N)CC(O)=O,0.9867
B-1131,acetoacetic acid,WDJHALXBUFZDSR-UHFFFAOYSA-N,CC(=O)CC(O)=O,0.991
B-1132,thioimidodicarbonic diamide,JIRRNZWTWJGJCT-UHFFFAOYSA-N,NC(=S)NC(N)=S,-1.6996
B-1133,"2h-pyran-2,4(3h)-dione, 6-methyl-",GYHBVAHWGBJKHA-UHFFFAOYSA-N,CC1=CC(=O)CC(=O)O1,-1.1185
B-1134,chlorocyclohexane,UNFUYWDGSFDHCW-UHFFFAOYSA-N,ClC1CCCCC1,-2.3752
B-1135,"hexanedioic acid, 2-amino-",OYIFNHCXNCRBQI-UHFFFAOYSA-N,NC(CCCC(O)=O)C(O)=O,-1.8648
B-1136,isobutyl formate,AVMSWPWPYJVYKY-UHFFFAOYSA-N,CC(C)COC=O,-1.0006
B-1137,n-butyl iodide,KMGBZBJJOKUPIA-UHFFFAOYSA-N,CCCCI,-2.9587
B-1139,bis(chloromethyl) ether,HRQGCQVOJVTVLU-UHFFFAOYSA-N,ClCOCCl,-0.7181
B-1140,cyclopentadiene,ZSWFCLXCOIISFI-UHFFFAOYSA-N,C1C=CC=C1,-1.565
B-1141,"ethanesulfonic acid, 2-[(aminoiminomethyl)amino]",JKLRIMRKZBSSED-UHFFFAOYSA-N,NC(N)=NCC[S](O)(=O)=O,-0.6321
B-1142,isobutyl nitrate,LNNXFUZKZLXPOF-UHFFFAOYSA-N,CC(C)CO[N+]([O-])=O,-1.9521
B-1143,1-chloropentane,SQCZQTSHSZLZIQ-UHFFFAOYSA-N,CCCCCCl,-2.7324
B-1144,barium acetate,ITHZDDVSAWDQPZ-UHFFFAOYSA-L,[Ba++].CC([O-])=O.CC([O-])=O,0.1948
B-1145,n-methyl butylcarbamate,OLCIOXGQTLVZQT-UHFFFAOYSA-N,CC(C)CCOC(N)=O,-1.4403
B-1146,"1-butanol, 3-methyl-, nitrate",NTHGIYFSMNNHSC-UHFFFAOYSA-N,CC(C)CCO[N+]([O-])=O,-2.4809
B-1147,strontium acetate,RXSHXLOMRZJCLB-UHFFFAOYSA-L,[Sr++].CC([O-])=O.CC([O-])=O,0.1446
B-1150,pentanedinitrile,ZTOMUSMDRMJOTH-UHFFFAOYSA-N,N#CCCCC#N,1.0263
B-1151,n-hexadecane,DCAYPVUWAIABOU-UHFFFAOYSA-N,CCCCCCCCCCCCCCCC,-8.4007
B-1152,n1-(4-so2nh2-ph)sulfanilamide,GCQZFVAHUZIDRP-UHFFFAOYSA-N,Nc1ccc(cc1)[S](=O)(=O)Nc2ccc(cc2)[S](N)(=O)=O,-2.7592
B-1153,"2-hydroxypropanoic acid, methyl ester",LPEKGGXMPWTOCB-UHFFFAOYSA-N,COC(=O)C(C)O,0.9825
B-1154,alpha-methylene butyrolactone,GSLDEZOOOSBFGP-UHFFFAOYSA-N,C=C1CCOC1=O,0.1844
B-1155,hyocholic acid,DKPMWHFRUGMUKF-KWXDGCAGSA-N,C[C@H](CCC(O)=O)[C@H]1CC[C@H]2[C@@H]3[C@H](O)[C@H](O)[C@@H]4C[C@H](O)CC[C@]4(C)[C@H]3CC[C@]12C,-4.3465
B-1156,ethyl biscoumacetate,SEGSDVUVOWIWFX-UHFFFAOYSA-N,CCOC(=O)C(C1=C(O)Oc2ccccc2C1=O)C3=C(O)Oc4ccccc4C3=O,-3.4264
B-1157,o-thymotic acid,FNWNGQGTFICQJU-UHFFFAOYSA-N,CC(C)c1ccc(C)c(C(O)=O)c1O,-3.2883
B-1159,amisometradine,FXNYSZHYMGWWEZ-UHFFFAOYSA-N,CN1C(=O)C=C(N)N(CC(C)=C)C1=O,-0.9895
B-1160,nebularine,MRWXACSTFXYYMV-FDDDBJFASA-N,OC[C@H]1O[C@H]([C@H](O)[C@@H]1O)n2cnc3cncnc23,-0.4018
B-1161,1-nitro-2-naphthol,SSHIVHKMGVBXTJ-UHFFFAOYSA-N,Oc1ccc2ccccc2c1[N+]([O-])=O,-2.9758
B-1162,"2,4,6-trichloro-3-methylphenol",QTAATZDGGZYBDC-UHFFFAOYSA-N,Cc1c(Cl)cc(Cl)c(O)c1Cl,-3.2761
B-1164,9-methyl-9-azabicyclo[3.3.1]nonan-3-one,RHWSKVCZXBAWLZ-UHFFFAOYSA-N,CN1C2CCCC1CC(=O)C2,0.4167
B-1165,"3-pyridinecarboxylic acid, hydrazide",KFUSANSHCADHNJ-UHFFFAOYSA-N,NNC(=O)c1cccnc1,-0.1372
B-1166,5-nitro-2-propoxyaniline,RXQCEGOUSFBKPI-UHFFFAOYSA-N,CCCOc1ccc(cc1N)[N+]([O-])=O,-3.1592
B-1167,methyl oxalate,LOMVENUNSWAXEN-UHFFFAOYSA-N,COC(=O)C(=O)OC,-0.2919
B-1172,methyldopa,CJCSPKMFHVPWAR-JTQLQIEISA-N,C[C@](N)(Cc1ccc(O)c(O)c1)C(O)=O,-1.3247
B-1173,maleanilic acid,WHZLCOICKHIPRL-SREVYHEPSA-N,OC(=O)\C=C/C(=O)Nc1ccccc1,-2.2815
B-1174,nifuradene,VSVAVMVWTLLTCH-BJMVGYQFSA-N,[O-][N+](=O)c1oc(cc1)\C=N\N2CCNC2=O,-3.3572
B-1175,d-tyrosine,OUYCCCASQSFEME-MRVPVSSYSA-N,N[C@H](Cc1ccc(O)cc1)C(O)=O,-2.6049
B-1176,dl-tyrosine,OUYCCCASQSFEME-UHFFFAOYSA-N,NC(Cc1ccc(O)cc1)C(O)=O,-2.6561
B-1178,zinc valerate,BUDAIZWUWHWZPQ-UHFFFAOYSA-L,[Zn++].CCCCC([O-])=O.CCCCC([O-])=O,-1.2722
B-1179,oxiranemethanol,CTKINSOISVBQLD-UHFFFAOYSA-N,OCC1CO1,1.1303
B-1183,2-pyrimidone,VTGOHKSTWXHQJK-UHFFFAOYSA-N,O=C1NC=CC=N1,0.6749
B-1184,methyl propyl ether,VNKYTQGIUYNRMY-UHFFFAOYSA-N,CCCOC,-0.3857
B-1185,1-monobutyrin,RIEABXYBQSLTFR-UHFFFAOYSA-N,CCCC(=O)OCC(O)CO,-1.335
B-1186,zinc acetate,DJWUNCQRNNEAKC-UHFFFAOYSA-L,[Zn++].CC([O-])=O.CC([O-])=O,0.2179
B-1187,allyl ether,ATVJXMYDOSMEPO-UHFFFAOYSA-N,C=CCOCC=C,-0.0206
B-1188,zinc formate,XOBMCBQSUCOAOC-UHFFFAOYSA-L,[Zn++].[O-]C=O.[O-]C=O,-0.4755
B-1189,carbon tetrabromide,HJUGFYREWKUQJT-UHFFFAOYSA-N,BrC(Br)(Br)Br,-3.1404
B-1190,fluoromethyl sulfone,KNWQLFOXPQZGPX-UHFFFAOYSA-N,C[S](F)(=O)=O,-0.5145
B-1192,"2-propanol, 1-chloro-2-methyl-",JNOZGFXJZQXOSU-UHFFFAOYSA-N,CC(C)(O)CCl,0.1602
B-1193,"methane, bromotrinitro-",KWSSHZBBUQSMKF-UHFFFAOYSA-N,[O-][N+](=O)C(Br)([N+]([O-])=O)[N+]([O-])=O,-1.7705
B-1194,heroin,GVGLGOZIDCSQPN-PVHGPHFFSA-N,CN1CC[C@]23[C@H]4Oc5c(OC(C)=O)ccc(C[C@@H]1[C@@H]2C=C[C@@H]4OC(C)=O)c35,-2.7894
B-1195,"3,3-dimethylpentane",AEXMKKGTQYQZCS-UHFFFAOYSA-N,CCC(C)(C)CC,-4.2286
B-1196,ethion,RIZMRRKBZQXFOY-UHFFFAOYSA-N,CCO[P](=S)(OCC)SCS[P](=S)(OCC)OCC,-5.2838
B-1197,3-methyl-1-butene,YHQXBTXEYZIYOV-UHFFFAOYSA-N,CC(C)C=C,-2.732
B-1198,2-methyl-1-butene,MHNNAWXXUZQSNM-UHFFFAOYSA-N,CCC(C)=C,-2.7307
B-1199,3-chloro-2-methylpropene,OHXAOPZTJOUYKM-UHFFFAOYSA-N,CC(=C)CCl,-1.8108
B-1200,"1,2-dichloropropene",PPKPKFIWDXDAGC-IHWYPQMZSA-N,C\C(Cl)=C\Cl,-1.6138
B-1201,"2-butanol, 3-chloro-",XKEHIUIIEXXHJX-UHFFFAOYSA-N,CC(O)C(C)Cl,-0.2122
B-1202,"1,2:3,4-diepoxybutane",ZFIVKAOQEXOYFY-ZXZARUISSA-N,C1O[C@@H]1[C@H]2CO2,1.065
B-1203,"2,2,3-trimethylpentane",XTDQDBVBDLYELW-UHFFFAOYSA-N,CCC(C)C(C)(C)C,-4.6776
B-1205,"2,3-dimethylpentane",WGECXQBGLLYSFP-UHFFFAOYSA-N,CCC(C)C(C)C,-4.2808
B-1206,3-methyl-2-pentanol,ZXNBBWHRUSXUFZ-UHFFFAOYSA-N,CCC(C)C(C)O,-0.7216
B-1207,3-methylpentan-2-one,UIHCLUNTQKBZGK-UHFFFAOYSA-N,CCC(C)C(C)=O,-0.6805
B-1208,2-methyl-3-pentanol,ISTJMQSHILQAEC-UHFFFAOYSA-N,CCC(O)C(C)C,-0.7062
B-1209,2-methyl-3-pentanone,HYTRYEXINDDXJK-UHFFFAOYSA-N,CCC(=O)C(C)C,-0.8106
B-1210,"propanoic acid, 3-amino-2-hydroxy-",BMYNFMYTOJXKLE-UHFFFAOYSA-N,NCC(O)C(O)=O,-0.8229
B-1211,2-bromo-3-methyl-butanoic acid,UEBARDWJXBGYEJ-UHFFFAOYSA-N,CC(C)C(Br)C(O)=O,-1.103
B-1212,"2,3,4-trimethylpentane",RLPGDEORIPLBNF-UHFFFAOYSA-N,CC(C)C(C)C(C)C,-4.6961
B-1213,"2,4-dimethyl-3-pentanone",HXVNBWAKAOHACI-UHFFFAOYSA-N,CC(C)C(=O)C(C)C,-1.3018
B-1214,"butanoic acid, 3-amino-2-hydroxy-",QTRAXZHIRXYYPP-UHFFFAOYSA-N,CC(N)C(O)C(O)=O,-0.3535
B-1215,alpha-peltatin,JGGWNGRBXJWAOC-HKJPBSJPSA-N,COc1cc(cc(OC)c1O)[C@H]2[C@@H]3[C@H](COC3=O)Cc4c(O)c5OCOc5cc24,-4.1254
B-1216,meconin,ORFFGRQMMWVHIB-UHFFFAOYSA-N,COc1ccc2COC(=O)c2c1OC,-1.8903
B-1217,"1h-imidazole-4,5-dicarboxylic acid",ZEVWQFWTGHFIDH-UHFFFAOYSA-N,OC(=O)c1[nH]cnc1C(O)=O,-2.4944
B-1218,inositol monophosphate,INAPMGSXUVUWAF-UHFFFAOYSA-N,OC1C(O)C(O)C(O[P](O)(O)=O)C(O)C1O,0.1076
B-1219,"benzoic acid, 2-hydroxy-, methoxymethyl ester",NTIBMIIYTKPBNR-UHFFFAOYSA-N,COCOC(=O)c1ccccc1O,-2.3
B-1221,"3,4-piperidinedicarboxylic acid",UBLWASUIZDSYFN-UHFFFAOYSA-N,OC(=O)C1CCNCC1C(O)=O,-0.5395
B-1222,1-aminoacridine,LOMMDWBTANPFEJ-UHFFFAOYSA-N,Nc1cccc2nc3ccccc3cc12,-4.222
B-1223,meso-hydrobenzoin,IHPDTPWNFBQHEB-UHFFFAOYSA-N,OC(C(O)c1ccccc1)c2ccccc2,-1.933
B-1225,"2,6-diethylaniline",FOYHNROGBXVLLX-UHFFFAOYSA-N,CCc1cccc(CC)c1N,-2.3478
B-1226,2-bromonaphthalene,APSMUYYLXZULMS-UHFFFAOYSA-N,Brc1ccc2ccccc2c1,-4.4001
B-1227,3-quinolinol,IQQDNMHUOLMLNJ-UHFFFAOYSA-N,Oc1cnc2ccccc2c1,-2.3925
B-1228,7-quinolinol,XCRPPAPDRUBKRJ-UHFFFAOYSA-N,[O-]c1ccc2ccc[nH+]c2c1,-2.5038
B-1229,chlorazine,QHXDTLYEHWXDSO-UHFFFAOYSA-N,CCN(CC)c1nc(Cl)nc(n1)N(CC)CC,-4.4112
B-1230,anatabine,SOPPBXUYQGUQHE-JTQLQIEISA-N,C1N[C@@H](CC=C1)c2cccnc2,0.7953
B-1231,"2,3'-bipyridine",VEKIYFGCEAJDDT-UHFFFAOYSA-N,c1ccc(nc1)c2cccnc2,-0.5916
B-1232,"8h-purine-8-thione, 1,7-dihydro-",VABISHCLVYMGAU-UHFFFAOYSA-N,S=C1Nc2cncnc2N1,-2.5243
B-1233,potassium oxalate,IRXRGVFLQOSHOH-UHFFFAOYSA-L,[K+].[K+].[O-]C(=O)C([O-])=O,0.1773
B-1236,allethrin,ZCVAOQKBXKSDMS-UHFFFAOYSA-N,CC(C)=CC1C(C(=O)OC2CC(=O)C(=C2C)CC=C)C1(C)C,-4.8179
B-1237,"alanine, n-(aminocarbonyl)-",LUSWEUMSEVLFEQ-REOHCLBHSA-N,C[C@H](NC(N)=O)C(O)=O,-0.7845
B-1238,"phenol, 3-(1,1-dimethylethyl)-",CYEKUDPFXBLGHH-UHFFFAOYSA-N,CC(C)(C)c1cccc(O)c1,-1.8614
B-1239,3-bromo-1-nitrobenzene,FWIROFMBWVMWLB-UHFFFAOYSA-N,[O-][N+](=O)c1cccc(Br)c1,-1.3054
B-1240,"1-propene-1,2,3-tricarboxylic acid, (z)-",GTZCVFVGUGFEME-HNQUOIGGSA-N,OC(=O)C\C(=C/C(O)=O)C(O)=O,0.3612
B-1241,lactitol,VQHSOMBJVWLPSR-UHFFFAOYSA-N,OCC(O)C(O)C(OC1OC(CO)C(O)C(O)C1O)C(O)CO,0.2872
B-1242,melibiose,DLRVVLDZNNYCBX-UHFFFAOYSA-N,OCC1OC(OCC2OC(O)C(O)C(O)C2O)C(O)C(O)C1O,0.4656
B-1243,"3,5-dinitrophenol",UEMBNLWZFIWQFL-UHFFFAOYSA-N,Oc1cc(cc(c1)[N+]([O-])=O)[N+]([O-])=O,-1.663
B-1244,"1,4-benzenedicarboxylic acid, 2-bromo-",QPBGNSFASPVGTP-UHFFFAOYSA-N,OC(=O)c1ccc(C(O)=O)c(Br)c1,-2.1339
B-1246,4-pyridinemethanol,PTMBWNZJOQBTBK-UHFFFAOYSA-N,OCc1ccncc1,0.9621
B-1247,"2-propanol, 1,3-dichloro-, carbamate",JMNCUXPHXKHBPY-UHFFFAOYSA-N,NC(=O)OC(CCl)CCl,-1.3605
B-1248,m-methylbenzyl alcohol,JJCKHVUTVOPLBV-UHFFFAOYSA-N,Cc1cccc(CO)c1,-0.388
B-1249,"3,5-dichlorophenoxyacetic acid",LXWGIMHMQOCPCR-UHFFFAOYSA-N,OC(=O)COc1cc(Cl)cc(Cl)c1,-2.3617
B-1250,m-chlorophenoxyacetic acid,XSBUXVWJQVTYLC-UHFFFAOYSA-N,OC(=O)COc1cccc(Cl)c1,-2.1954
B-1251,stilbene,PJANXHGTPQOBST-VAWYXSNFSA-N,c1ccc(cc1)\C=C\c2ccccc2,-5.7905
B-1252,"1,4-benzenedimethanol",BWVAOONFBYYRHY-UHFFFAOYSA-N,OCc1ccc(CO)cc1,-0.3861
B-1253,3-methylhexane,VLJXXKKOSFGPHI-UHFFFAOYSA-N,CCCC(C)CC,-4.3063
B-1255,3-hexanone,PFCHFHIRKBAQGU-UHFFFAOYSA-N,CCCC(=O)CC,-0.8334
B-1256,3-methylheptane,LAIUFBWHERIJIH-UHFFFAOYSA-N,CCCCC(C)CC,-5.1591
B-1258,"1,4-dimethylcyclohexane",QRMPKOFEUHIBNM-UHFFFAOYSA-N,CC1CCC(C)CC1,-4.4657
B-1259,n-butyl propionate,BTMVHUNTONAYDX-UHFFFAOYSA-N,CCCCOC(=O)CC,-1.9385
B-1260,"1,2-diiodoethene (cis)",CVOGMKGEVNGRSK-UPHRSURJSA-N,I\C=C/I,-2.7813
B-1262,potassium formate,WFIZEGIEIOHZCP-UHFFFAOYSA-M,[K+].[O-]C=O,0.9288
B-1263,"2,2-dimethylpentane",CXOWYJMDMMMMJO-UHFFFAOYSA-N,CCCC(C)(C)C,-4.3575
B-1264,2-methyl-2-pentanol,WFRBDWRZVBPBDO-UHFFFAOYSA-N,CCCC(C)(C)O,-0.4988
B-1265,bethanechol chloride,XXRMYXBSBOVVBH-UHFFFAOYSA-N,[Cl-].CC(C[N+](C)(C)C)OC(N)=O,0.5021
B-1266,"2,2-dimethylhexane",FLTJDUOFAQWHDF-UHFFFAOYSA-N,CCCCC(C)(C)C,-5.7568
B-1268,dicyanodiamidine sulfate,IATXFPUBPMZBPH-UHFFFAOYSA-N,NC(N)=NC(N)=O.NC(N)=NC(N)=O.O[S](O)(=O)=O,-0.7814
B-1269,3-methylcyclohexanone,UJBOOUHRTQVGRU-UHFFFAOYSA-N,CC1CCCC(=O)C1,-1.8738
B-1270,1-methylcyclohexene,CTMHWPIWNRWQEG-UHFFFAOYSA-N,CC1=CCCCC1,-3.2671
B-1271,2-methylhexane,GXDHCNNESPLIKD-UHFFFAOYSA-N,CCCCC(C)C,-4.5961
B-1272,allyl acetate,FWZUNOYOVVKUNF-UHFFFAOYSA-N,CC(=O)OCC=C,-0.5534
B-1273,1-chloro-2-butene,YTKRILODNOEEPX-NSCUHMNNSA-N,C/C=C/CCl,-1.9569
B-1274,2-heptene,OTTZHAVKAVGASB-HWKANZROSA-N,CCCC\C=C\C,-3.816
B-1275,n-butylformate,NMJJFJNHVMGPGM-UHFFFAOYSA-N,CCCCOC=O,-1.1307
B-1277,chlorofluoromethane,XWCDCDSDNJVCLO-UHFFFAOYSA-N,FCCl,-0.8202
B-1278,dimethyl selenide,RVIXKDRPFPUUOO-UHFFFAOYSA-N,C[Se]C,-0.6502
B-1280,"acetamide, 2,2,2-tribromo-",ORCCSQMJUGMAQU-UHFFFAOYSA-N,NC(=O)C(Br)(Br)Br,-1.2668
B-1282,trichloroacetamide,UPQQXPKAYZYUKO-UHFFFAOYSA-N,NC(=O)C(Cl)(Cl)Cl,-1.0966
B-1283,"1,1-dichloro-1-nitroethane",OQOGEOLRYAOSKO-UHFFFAOYSA-N,CC(Cl)(Cl)[N+]([O-])=O,-1.7603
B-1284,"2,3-dimethyl-3-pentanol",RFZHJHSNHYIRNE-UHFFFAOYSA-N,CCC(C)(O)C(C)C,-0.8504
B-1285,"1,1-dichloro-1-nitropropane",DNYOTMDPSXBJRJ-UHFFFAOYSA-N,CCC(Cl)(Cl)[N+]([O-])=O,-1.4996
B-1286,"2-ethyl-2-nitro-1,3-propanediol",YADISKICBOYXFS-UHFFFAOYSA-N,CCC(CO)(CO)[N+]([O-])=O,0.8264
B-1287,"3-hydroxy-2,2-dimethylpropanal",JJMOMMLADQPZNY-UHFFFAOYSA-N,CC(C)(CO)C=O,-0.3279
B-1288,"2-propanol, 1,3-dichloro-2-methyl-",UZHWBXUQTDSMGJ-UHFFFAOYSA-N,CC(O)(CCl)CCl,-0.1822
B-1290,"1,3-propanediol, 2,2-bis (acetyloxy)methyl -, di",OUHCZCFQVONTOC-UHFFFAOYSA-N,CC(=O)OCC(COC(C)=O)(COC(C)=O)COC(C)=O,-1.5686
B-1292,"4-heptanol, 4-methyl-",IQXKGRKRIRMQCQ-UHFFFAOYSA-N,CCCC(C)(O)CCC,-1.5867
B-1294,"oxirane, 2-(chloromethyl)-2-methyl-",VVHFXJOCUKBZFS-UHFFFAOYSA-N,CC1(CCl)CO1,-0.5504
B-1295,"1,2-dibromo-1-chloroethane",DVTKTUMRXCKEEG-UHFFFAOYSA-N,ClC(Br)CBr,-2.5546
B-1297,methyl isopropyl ether,RMGHERXMTMUMMV-UHFFFAOYSA-N,COC(C)C,-0.057
B-1298,"acetamide, 2,2-dibromo-",YUIKPESWSMJSMP-UHFFFAOYSA-N,NC(=O)C(Br)Br,-1.0574
B-1299,"1,1,2-trichloropropane",GRSQYISVQKPZCW-UHFFFAOYSA-N,CC(Cl)C(Cl)Cl,-1.8898
B-1300,2-chloropropionic acid,GAWAYYRQGQZKCR-UHFFFAOYSA-N,CC(Cl)C(O)=O,0.9645
B-1302,"ethane, 1-chloro-1-nitro-",LPIWIOBGUAPNQW-UHFFFAOYSA-N,CC(Cl)[N+]([O-])=O,-1.4374
B-1303,"benzenesulfonic acid, 4-methyl-, 2-methylphenyl",WBKWVLAHWVFXKM-UHFFFAOYSA-N,Cc1ccc(cc1)[S](=O)(=O)Oc2ccccc2C,-3.9417
B-1304,"ethane, 1,1,1-trichloro-2,2-diethoxy-",CGCJBAIEQANINV-UHFFFAOYSA-N,CCOC(OCC)C(Cl)(Cl)Cl,-1.6464
B-1305,1-chloro-1-nitropropane,XEKUXTMJEFPWCG-UHFFFAOYSA-N,CCC(Cl)[N+]([O-])=O,-1.1887
B-1306,"2,4-dimethyl-3-pentanol",BAYAKMPRFGNNFW-UHFFFAOYSA-N,CC(C)C(O)C(C)C,-1.2201
B-1307,ethylmalonic acid,UKFXDFUAPNAMPJ-UHFFFAOYSA-N,CCC(C(O)=O)C(O)=O,0.7315
B-1308,"acenaphthylene, 1,2-dihydro-5-nitro-",CUARLQDWYSRQDF-UHFFFAOYSA-N,[O-][N+](=O)c1ccc2CCc3cccc1c23,-5.3403
B-1309,"benzoic acid, 2,6-dibromo-3,4,5-trihydroxy-",RZMMKKHHNDGXPD-UHFFFAOYSA-N,OC(=O)c1c(Br)c(O)c(O)c(O)c1Br,-0.4188
B-1310,"3-methyl-2,4,6-trinitrophenol",YYGJRRYSYLLCQH-UHFFFAOYSA-N,Cc1c(cc(c(O)c1[N+]([O-])=O)[N+]([O-])=O)[N+]([O-])=O,-2.0434
B-1311,proxyphylline,KYHQZNGJUGFTGR-UHFFFAOYSA-N,CC(O)Cn1cnc2N(C)C(=O)N(C)C(=O)c12,0.623
B-1312,3-nitrophthalic acid,KFIRODWJCYBBHY-UHFFFAOYSA-N,OC(=O)c1cccc(c1C(O)=O)[N+]([O-])=O,-1.0214
B-1313,rosolic acid,FYEHYMARPSSOBO-UHFFFAOYSA-N,Oc1ccc(cc1)C(c2ccc(O)cc2)=C3C=CC(=O)C=C3,-2.3837
B-1314,"benzoic acid, 2-benzoyl-, ethyl ester",CGWFVEFHQWJOKI-UHFFFAOYSA-N,CCOC(=O)c1ccccc1C(=O)c2ccccc2,-3.4053
B-1315,2-hydroxyanthraquinone,GCDBEYOJCZLKMC-UHFFFAOYSA-N,Oc1ccc2C(=O)c3ccccc3C(=O)c2c1,-5.3093
B-1316,"benzoic acid, 2-benzoyl-, methyl ester",NQSMEZJWJJVYOI-UHFFFAOYSA-N,COC(=O)c1ccccc1C(=O)c2ccccc2,-3.4776
B-1317,"2,4(1h,3h)-quinazolinedione, 6,8-dinitro-",COWHVSLHGUONGN-UHFFFAOYSA-N,[O-][N+](=O)c1cc2C(=O)NC(=O)Nc2c(c1)[N+]([O-])=O,-3.2057
B-1318,1-methyl-2(h)-quinolinone,QYEMNJMSULGQRD-UHFFFAOYSA-N,CN1C(=O)C=Cc2ccccc12,-1.0466
B-1319,4-hydroxy-2-methylquinoline,NWINIEGDLHHNLH-UHFFFAOYSA-N,CC1=CC(=O)c2ccccc2N1,-1.2019
B-1320,"1,2,3-tribromobenzene",GMVJKSNPLYBFSO-UHFFFAOYSA-N,Brc1cccc(Br)c1Br,-5.0402
B-1322,"altraric acid, d-",DSLZVSRJTYRBFB-YCAKELIYSA-N,O[C@H]([C@H](O)[C@H](O)C(O)=O)[C@H](O)C(O)=O,0.1999
B-1324,"propanedioic acid, oxo-, diethyl ester",DBKKFIIYQGGHJO-UHFFFAOYSA-N,CCOC(=O)C(=O)C(=O)OCC,0.5117
B-1325,2-nitro-1-butanol,MHIHRIPETCJEMQ-UHFFFAOYSA-N,CCC(CO)[N+]([O-])=O,-0.3436
B-1326,"2,4-dichloro-6-nitrophenol",LYPMXMBQPXPNIQ-UHFFFAOYSA-N,Oc1c(Cl)cc(Cl)cc1[N+]([O-])=O,-4.0876
B-1327,"benzoic acid, 3-formyl-2-hydroxy-",YOEUNKPREOJHBW-UHFFFAOYSA-N,OC(=O)c1cccc(C=O)c1O,-2.4423
B-1328,"2,4-dinitrobenzoic acid",ZIIGSRYPZWDGBT-UHFFFAOYSA-N,OC(=O)c1ccc(cc1[N+]([O-])=O)[N+]([O-])=O,-1.0665
B-1329,1-methylanthracene,KZNJSFHJUQDYHE-UHFFFAOYSA-N,Cc1cccc2cc3ccccc3cc12,-5.8541
B-1330,"1(3h)-isobenzofuranone, 6-nitro-",RNWGZXAHUPFXLL-UHFFFAOYSA-N,[O-][N+](=O)c1ccc2COC(=O)c2c1,-2.6511
B-1333,"1,2-benzenedimethanol",XMUZQOKACOLCSS-UHFFFAOYSA-N,OCc1ccccc1CO,0.0569
B-1334,"benzoic acid, 2-(hydroxymethyl)-",MGMNPSAERQZUIM-UHFFFAOYSA-N,OCc1ccccc1C(O)=O,-1.5508
B-1335,2-ethylnitrobenzene,PXWYZLWEKCMTEZ-UHFFFAOYSA-N,CCc1ccccc1[N+]([O-])=O,-2.7993
B-1336,2-nitrobenzyl alcohol,BWRBVBFLFQKBPT-UHFFFAOYSA-N,OCc1ccccc1[N+]([O-])=O,-1.4861
B-1337,2-aminoanthracene,YCSBALJAGZKWFF-UHFFFAOYSA-N,Nc1ccc2cc3ccccc3cc2c1,-5.1722
B-1338,"nicotinic acid, ethyl ester",XBLVHTDFJBKJLG-UHFFFAOYSA-N,CCOC(=O)c1cccnc1,-0.4313
B-1339,2-chloroiodobenzene,MPEOPBCQHNWNFB-UHFFFAOYSA-N,Clc1ccccc1I,-3.54
B-1341,ethyl n-methylnitrosocarbamate,CAUBWLYZCDDYEF-UHFFFAOYSA-N,CCOC(=O)N(C)N=O,-0.5528
B-1342,"1,2,4-tribromobenzene",FWAJPSIPOULHHH-UHFFFAOYSA-N,Brc1ccc(Br)c(Br)c1,-4.808
B-1343,dl-norleucine,LRQKBLKVPFOOQJ-UHFFFAOYSA-N,CCCCC(N)C(O)=O,-1.0453
B-1344,3-chloropentane,CXQSCYIVCSCSES-UHFFFAOYSA-N,CCC(Cl)CC,-2.6307
B-1345,1-penten-3-ol,VHVMXWZXFBOANQ-UHFFFAOYSA-N,CCC(O)C=C,0.0193
B-1346,pyrrolidone,HNJBEVLQSNELDL-UHFFFAOYSA-N,O=C1CCCN1,1.07
B-1348,propylpropanedioic acid,VQDJODAWOFNASI-UHFFFAOYSA-N,CCCC(C(O)=O)C(O)=O,0.6803
B-1349,"1,3-benzenediol, 4,6-dinitro-",MBXIRNHACKAGPA-UHFFFAOYSA-N,Oc1cc(O)c(cc1[N+]([O-])=O)[N+]([O-])=O,-3.4086
B-1350,"benzoic acid, 5-formyl-2-hydroxy-",UTCFOFWMEPQCSR-UHFFFAOYSA-N,OC(=O)c1cc(C=O)ccc1O,-2.6354
B-1351,pentylmalonic acid,LAWHHRXCBUNWFI-UHFFFAOYSA-N,CCCCCC(C(O)=O)C(O)=O,0.5921
B-1352,2-methyl-3-hexanol,RGRUUTLDBCWYBL-UHFFFAOYSA-N,CCCC(O)C(C)C,-1.3093
B-1357,"benzenesulfonic acid, 3-(dimethylamino)-",SOKSKPNEBIDBOU-UHFFFAOYSA-N,CN(C)c1cccc(c1)[S](O)(=O)=O,0.2983
B-1358,"2-furancarboxylic acid, 5-chloro-",NNTBDUTXMIMRKK-UHFFFAOYSA-M,[O-]C(=O)c1oc(Cl)cc1,-1.7188
B-1359,helicin,BGOFCVIGEYGEOF-UJPOAAIJSA-N,OC[C@H]1O[C@@H](Oc2ccccc2C=O)[C@H](O)[C@@H](O)[C@@H]1O,-1.1985
B-1360,"3,4-dimethylbenzoic acid",OPVAJFQBSDUNQA-UHFFFAOYSA-M,Cc1ccc(cc1C)C([O-])=O,-3.0653
B-1361,m-nitrobenzyl alcohol,CWNPOQFCIIFQDM-UHFFFAOYSA-N,OCc1cccc(c1)[N+]([O-])=O,-2.4142
B-1362,p-cyanobenzoic acid,ADCUEPOHPCPMCE-UHFFFAOYSA-N,OC(=O)c1ccc(cc1)C#N,-2.0885
B-1363,p-nitrobenzyl alcohol,JKTYGPATCNUWKN-UHFFFAOYSA-N,OCc1ccc(cc1)[N+]([O-])=O,-1.8841
B-1364,4-dimethylamino benzoic acid,YDIYEOMDOWUDTJ-UHFFFAOYSA-N,CN(C)c1ccc(cc1)C(O)=O,-3.3979
B-1365,m-hydroxybenzyl alcohol,OKVJCVWFVRATSG-UHFFFAOYSA-N,OCc1cccc(O)c1,-0.2678
B-1366,"acetamide, 2-cyano-n-phenyl-",XCTQPMCULSZKLT-UHFFFAOYSA-N,O=C(CC#N)Nc1ccccc1,-2.7275
B-1367,m-hydroxyphenylacetic acid,FVMDYYGIDFPZAX-UHFFFAOYSA-N,OC(=O)Cc1cccc(O)c1,0.8177
B-1368,"1-pentanamine, n,n-dipentyl-",OOHAUGDGCWURIT-UHFFFAOYSA-N,CCCCCN(CCCCC)CCCCC,-4.0326
B-1369,4-methylphenylisothiocyanate,ABQKHKWXTUVKGF-UHFFFAOYSA-N,Cc1ccc(cc1)N=C=S,-4.7213
B-1370,p-methylstyrene,JLBJTVDPSNHSKJ-UHFFFAOYSA-N,Cc1ccc(C=C)cc1,-3.1232
B-1371,p-hydroxybenzyl alcohol,BVJSUAQZOZWCKN-UHFFFAOYSA-N,OCc1ccc(O)cc1,-1.2678
B-1373,"1,4-benzenedicarboxaldehyde",KUCOHFSKRZZVRO-UHFFFAOYSA-N,O=Cc1ccc(C=O)cc1,-2.8265
B-1374,methylbutyrate,UUIQMZJEGPQKFD-UHFFFAOYSA-N,CCCC(=O)OC,-0.8331
B-1375,"1,2-propylene glycol diacetate",MLHOXUWWKVQEJB-UHFFFAOYSA-N,CC(COC(C)=O)OC(C)=O,-0.2046
B-1376,"decanedioic acid, bis(2-ethoxyethyl) ester",UVRXDBUBNLXONB-UHFFFAOYSA-N,CCOCCOC(=O)CCCCCCCCC(=O)OCCOCC,-3.1972
B-1377,diethyl azelate,CQMYCPZZIPXILQ-UHFFFAOYSA-N,CCOC(=O)CCCCCCCC(=O)OCC,-2.99
B-1378,methyl valerate,HNBDRPTVWVGKBR-UHFFFAOYSA-N,CCCCC(=O)OC,-1.3606
B-1379,"1,4-diiodobenzene",LFMWZTSOMGDDJU-UHFFFAOYSA-N,Ic1ccc(I)cc1,-5.3723
B-1381,3-nonanol,GYSCXPVAKHVAAY-UHFFFAOYSA-N,CCCCCCC(O)CC,-2.6608
B-1383,"ethane, 1,2-diiodo-",GBBZLMLLFVFKJM-UHFFFAOYSA-N,ICCI,-3.2196
B-1384,"3,3-dimethyl-1-butanol",DUXCSEISVMREAX-UHFFFAOYSA-N,CC(C)(C)CCO,-1.1308
B-1385,"2,4-dimethyl-2-pentanol",FMLSQAUAAGVTJO-UHFFFAOYSA-N,CC(C)CC(C)(C)O,-0.9307
B-1386,"urea, (1,1-dimethylpropyl)-",OVUWGANMOQIFHZ-UHFFFAOYSA-N,CCC(C)(C)NC(N)=O,-1.0142
B-1387,2-methyl-2-hexanol,KRIMXCDMVRMCTC-UHFFFAOYSA-N,CCCCC(C)(C)O,-1.0784
B-1388,2-methyl-2-heptanol,ACBMYYVZWKYLIP-UHFFFAOYSA-N,CCCCCC(C)(C)O,-1.7168
B-1390,methyl isobutyl ether,ZYVYEJXMYBUCMN-UHFFFAOYSA-N,COCC(C)C,-0.9007