ID,Name,InChIKey,SMILES,Solubility
A-4112,"2,6,6-trimethylcyclohex-2-ene-1,4-dione",AYJXHIDNNLJQDT-UHFFFAOYSA-N,CC1=CC(=O)CC(C)(C)C1=O,-0.8779041501
A-4114,2-[4-(2-hydroxyethoxy)but-2-ynoxy]ethanol,IXAWTPMDMPUGLV-UHFFFAOYSA-N,OCCOCC#CCOCCO,0.7589618218
A-4115,"2-hydroxy-3,5-dinitrobenzoic acid",LWFUFLREGJMOIZ-UHFFFAOYSA-N,OC(=O)c1cc(cc(c1O)[N+]([O-])=O)[N+]([O-])=O,-1.057125752
A-4116,2-phenylethan-1-ol,WRMNZCZEMHIOCP-UHFFFAOYSA-N,OCCc1ccccc1,-0.7859239136
A-4119,ethenyl acetate,XTXRWKRVRITETP-UHFFFAOYSA-N,CC(=O)OC=C,-0.6339227122
A-4123,salicylonitrile,CHZCERSEMVWNHL-UHFFFAOYSA-N,Oc1ccccc1C#N,-0.7749656265
A-4124,"sodium 1-amino-4-bromo-9,10-dioxo-9,10-dihydroanthracene-2-sulfonate",TXMRAEGWZZVGIH-UHFFFAOYSA-M,[Na+].Nc1c(cc(Br)c2C(=O)c3ccccc3C(=O)c12)[S]([O-])(=O)=O,-1.3055373023
A-4125,trimethylsilane,DCERHCFNWRGHLK-UHFFFAOYSA-N,C[Si](C)C,-0.5634276852
A-4126,"2-benzofuran-1,3-dione; 2-(2-hydroxyethoxy)ethanol",ZLBFMYQIKPWYBC-UHFFFAOYSA-N,OCCOCCO.O=C1OC(=O)c2ccccc12,-1.4052404634
A-4127,"disodium (4Z)-3-hydroxy-4-[2-(2-hydroxy-3,5-dinitrophenyl)hydrazin-1-ylidene]cyclohexa-2,5-dien-1-one 4-nitroaniline 3-aminobenzene-1-sulfonate 5-amino-2-(phenylamino)benzene-1-sulfonate iron",GPGKAHBGRXSZGY-DULHVBCPSA-L,[Na+].[Na+].[Fe].Nc1ccc(cc1)[N+]([O-])=O.Nc2cccc(c2)[S]([O-])(=O)=O.Nc3ccc(Nc4ccccc4)c(c3)[S]([O-])(=O)=O.OC\5=CC(=O)C=CC5=N/Nc6cc(cc(c6O)[N+]([O-])=O)[N+]([O-])=O,-2.5268154232
A-4128,benzoic acid,WPYMKLBDIGXBTP-UHFFFAOYSA-N,OC(=O)c1ccccc1,-1.619929844
A-4130,"6-hydroxy-1,4-dihydropyrimidin-4-one",DUFGYCAXVIUXIP-UHFFFAOYSA-N,OC1=CC(=O)NC=N1,-1.5871611222
A-4132,benzyl formate,UYWQUFXKFGHYNT-UHFFFAOYSA-N,O=COCc1ccccc1,-1.6731198029
A-4133,1-ethoxybutane,PZHIWRCQKBBTOW-UHFFFAOYSA-N,CCCCOCC,-1.5499606595
A-4136,"1,1,3,3-tetramethylbutyl hydroperoxide",KBAQMIYTOZVRBC-HZHRSRAPSA-N,CCOC(=O)C(=N/Nc1ccc(cc1)[N+]([O-])=O)/C(=O)C2=NN3C(=NC(=O)c4ccccc34)S2,-2.2216330999
A-4138,1-carbamimidamido-N-(2-methylphenyl)methanimidamide,SQZCAOHYQSOZCE-UHFFFAOYSA-N,Cc1ccccc1N=C(N)N=C(N)N,-1.8422414993
A-4142,2-(5-ethenyl-5-methyloxolan-2-yl)propan-2-ol,BRHDDEIRQPDPMG-UHFFFAOYSA-N,CC(C)(O)C1CCC(C)(O1)C=C,-1.7997284582
A-4143,N-(2-methylphenyl)-3-oxobutanamide,TVZIWRMELPWPPR-UHFFFAOYSA-N,CC(=O)CC(=O)Nc1ccccc1C,-1.8501922609
A-4144,[1-(carbamoylamino)-2-methylpropyl]urea,QFHMNFAUXJAINK-UHFFFAOYSA-N,CC(C)C(NC(N)=O)NC(N)=O,-1.8096943587
A-4145,"2-Chloro-1,1-difluoroethane",ATEBGNALLCMSGS-UHFFFAOYSA-N,FC(F)CCl,-0.9229632085
A-4146,"2,2'-(1,3-phenylene)dipropan-2-ol",UGPWRRVOLLMHSC-UHFFFAOYSA-N,CC(C)(O)c1cccc(c1)C(C)(C)O,-1.8635330455
A-4147,2-ethyl-6-methylaniline,JJVKJJNCIILLRP-UHFFFAOYSA-N,CCc1cccc(C)c1N,-1.7061271762
A-4149,calcium sulfate,OSGAYBCDTDRGGQ-UHFFFAOYSA-L,[Ca++].[O-][S]([O-])(=O)=O,-1.715687645
A-4151,N-(4-methoxyphenyl)-3-oxobutanamide,SWAJJKROCOJICG-UHFFFAOYSA-N,COc1ccc(NC(=O)CC(C)=O)cc1,-1.9014771833
A-4152,"2-methyl-4-phenyl-1,3-dioxolane",YPPGSWWESBCSCT-UHFFFAOYSA-N,CC1OCC(O1)c2ccccc2,-1.805450609
A-4153,3-methyl-5-propylcyclohex-2-en-1-one,URQMEZRQHLCJKR-UHFFFAOYSA-N,CCCC1CC(=CC(=O)C1)C,-1.7725870938
A-4154,4-cyanophenyl acetate,CJGXWABHYYJNJH-UHFFFAOYSA-N,CC(=O)Oc1ccc(cc1)C#N,-1.7990172934
A-4156,"(2S)-2-(1,3-dioxoisoindol-2-yl)pentanedioic acid",FEFFSKLJNYRHQN-VIFPVBQESA-N,OC(=O)CC[C@H](N1C(=O)c2ccccc2C1=O)C(O)=O,-1.4463316859
A-4157,1-Methyl-4-propan-2-ylcyclohexene,GEEMIUONIWYDTI-UHFFFAOYSA-N,CC(C)C1CCC(=CC1)C.CC(C)C2CCC(=CC2)C,-5.4952554359
A-4158,"1,1-dichloroethene",LGXVIGDEPROXKC-UHFFFAOYSA-N,ClC(Cl)=C,-1.5885809265
A-4162,(6R)-3-methyl-6-(propan-2-yl)cyclohex-2-en-1-one,YSTPAHQEHQSRJD-SECBINFHSA-N,CC(C)[C@H]1CCC(=CC1=O)C,-1.7882436903
A-4163,"(2S,5R)-6-amino-3,3-dimethyl-7-oxo-4-thia-1-azabicyclo[3.2.0]heptane-2-carboxylic acid",NGHVIOIJCVXTGV-ALEPSDHESA-N,CC1(C)S[C@@H]2[C@H](N)C(=O)N2[C@H]1C(O)=O,-1.9440451079
A-4165,"boron(+3) cation; N,N-dimethyloctan-1-amine; trichloride",SBDAPZFOTCURRM-UHFFFAOYSA-K,[B+3].[Cl-].[Cl-].[Cl-].CCCCCCCCN(C)C,-5.4653701933
A-4167,2-chlorobenzenethiol,PWOBDMNCYMQTCE-UHFFFAOYSA-N,Sc1ccccc1Cl,-1.7800351331
A-4169,3-aminopyrazine-2-carboxylic acid,ZAGZIOYVEIDDJA-UHFFFAOYSA-N,Nc1nccnc1C(O)=O,-1.7631595965
A-4170,[(2-chlorophenyl)methyl]dimethylamine,MZKKJAOOPDDXQQ-UHFFFAOYSA-N,CN(C)Cc1ccccc1Cl,-1.8493554218
A-4171,"calcium diethyl bis[[[3,5-bis(1,1-dimethylethyl)-4-hydroxyphenyl]methyl]phosphonate]",SJEZDMHBMZPMME-UHFFFAOYSA-L,[Ca++].CCO[P]([O-])(=O)Cc1cc(c(O)c(c1)C(C)(C)C)C(C)(C)C.CCO[P]([O-])(=O)Cc2cc(c(O)c(c2)C(C)(C)C)C(C)(C)C,-2.4616735699
A-4175,"diallyl oxydiethane-2,1-diyl biscarbonate",JHQVCQDWGSXTFE-UHFFFAOYSA-N,C=CCOC(=O)OCCOCCOC(=O)OCC=C,-2.0652647201
A-4176,oct-7-en-1-ol,WXPWPYISTQCNDP-UHFFFAOYSA-N,OCCCCCCC=C,-1.7442328638
A-4178,benzenesulfonyl chloride,CSKNSYBAZOQPLR-UHFFFAOYSA-N,Cl[S](=O)(=O)c1ccccc1,-1.88532188
A-4179,"3-[(2-isopropyl-5-methylcyclohexyl)oxy]propane-1,2-diol",MDVYIGJINBYKOM-UHFFFAOYSA-N,CC(C)C1CCC(C)CC1OCC(O)CO,-2.0063585886
A-4180,3-hydroxy-4-methoxybenzaldehyde,JVTZFYYHCGSXJV-UHFFFAOYSA-N,COc1ccc(C=O)cc1O,-1.8262432451
A-4181,4-methylbenzaldehyde,FXLOVSHXALFLKQ-UHFFFAOYSA-N,Cc1ccc(C=O)cc1,-1.7237015325
A-4182,4-amino-3-nitrophenol,IQXUIDYRTHQTET-UHFFFAOYSA-N,Nc1ccc(O)cc1[N+]([O-])=O,-1.8337646505
A-4184,2-nitrophenol,IQUPABOKLQSFBK-UHFFFAOYSA-N,Oc1ccccc1[N+]([O-])=O,-1.8029142358
A-4185,"2,4,6-trimethylcyclohex-3-ene-1-carbaldehyde",YJSUCBQWLKRPDL-UHFFFAOYSA-N,CC1CC(=CC(C)C1C=O)C,-1.8440637235
A-4186,5-pentyloxolan-2-one,OALYTRUKMRCXNH-QMMMGPOBSA-N,CCCCC[C@H]1CCC(=O)O1,-1.8552940397
A-4188,"1-(2,6-dimethylphenoxy)acetone",XDJULAUHYAJQBU-UHFFFAOYSA-N,CC(=O)COc1c(C)cccc1C,-1.9185447839
A-4189,"2,5-dimethoxyaniline",NAZDVUBIEPVUKE-UHFFFAOYSA-N,COc1ccc(OC)c(N)c1,-1.8588690394
A-4192,"N-(2,4-dimethylphenyl)-3-oxobutanamide",HGVIAKXYAZRSEG-UHFFFAOYSA-N,CC(=O)CC(=O)Nc1ccc(C)cc1C,-1.9900786823
A-4193,N-(2-methoxy-5-methylphenyl)acetamide,POLMNXCVMYMLSF-UHFFFAOYSA-N,COc1ccc(C)cc1NC(C)=O,-1.931164755
A-4197,"5-methyl-2-phenyl-2,3-dihydro-1H-pyrazol-3-one",QELUYTUMUWHWMC-UHFFFAOYSA-N,CC1=NN(C(=O)C1)c2ccccc2,-1.9250852844
A-4198,heptanal,FXHGMKSSBGDXIY-UHFFFAOYSA-N,CCCCCCC=O,-1.7501244285
A-4200,tert-butyl prop-2-enoate,ISXSCDLOGDJUNJ-UHFFFAOYSA-N,CC(C)(C)OC(=O)C=C,-1.8045937153
A-4202,"2-Hydroxy-N,N-dimethylpropanamide",YEBLAXBYYVCOLT-UHFFFAOYSA-N,CC(O)C(=O)N(C)C,1.6302351258
A-4203,azanium 2-hydroxyacetate,UBKBVPONTPMQQW-UHFFFAOYSA-N,[NH4+].OCC([O-])=O,1.7009159091
A-4204,"1,1'-binaphthalene-8,8'-dicarboxylic acid",XGDAODQNSVFBGM-UHFFFAOYSA-N,OC(=O)c1cccc2cccc(c3cccc4cccc(C(O)=O)c34)c12,-2.2334403365
A-4205,2-methylpropyl prop-2-enoate,CFVWNXQPGQOHRJ-UHFFFAOYSA-N,CC(C)COC(=O)C=C,-1.8067597771
A-4206,3-phenylbutanal,MYHGOWDLVRDUFA-UHFFFAOYSA-N,CC(CC=O)c1ccccc1,-1.86983286
A-4207,4-amino-3-methylphenol,QGNGOGOOPUYKMC-UHFFFAOYSA-N,Cc1cc(O)ccc1N,-1.7894220529
A-4211,methyl 2-oxo-2-phenylacetate,YLHXLHGIAMFFBU-UHFFFAOYSA-N,COC(=O)C(=O)c1ccccc1,-1.9142373478
A-4215,disodium 6-amino-3-sulfo-2-[(E)-2-{4-[(E)-2-(4-sulfonatophenyl)diazen-1-yl]phenyl}diazen-1-yl]naphthalen-1-olate,DNDMQQPFVIIALP-UHFFFAOYSA-L,[Na+].[Na+].Nc1ccc2c([O-])c(N=Nc3ccc(cc3)N=Nc4ccc(cc4)[S]([O-])(=O)=O)c(cc2c1)[S](O)(=O)=O,-0.4603540841
A-4216,4-(aminomethyl)-2-methoxyphenol hydrochloride,LOYPVODLNGWOLM-UHFFFAOYSA-N,[Cl].COc1cc(CN)ccc1O,0.0188462521
A-4217,"disodium 4-{4-[(E)-2-[5-(2-bromoprop-2-enamido)-2-sulfonatophenyl]diazen-1-yl]-3-methyl-5-oxo-4,5-dihydro-1H-pyrazol-1-yl}-2,5-dichlorobenzene-1-sulfonate",JVURCOFLRNSPQI-UHFFFAOYSA-L,[Na+].[Na+].CC1=NN(C(=O)C1N=Nc2cc(NC(=O)C(Br)=C)ccc2[S]([O-])(=O)=O)c3cc(Cl)c(cc3Cl)[S]([O-])(=O)=O,-0.5501699754
A-4218,"hexasodium 6,13-dichloro-3,10-bis({[2-({4-chloro-6-[(2,4-disulfonatophenyl)amino]-1,3,5-triazin-2-yl}amino)ethyl]amino})-5,12-dioxa-7,14-diazapentacene-4,11-disulfonate",LNXCMNGXHAOOOW-UHFFFAOYSA-H,[Na+].[Na+].[Na+].[Na+].[Na+].[Na+].[O-][S](=O)(=O)c1ccc(Nc2nc(Cl)nc(NCCNc3ccc4N=C5C(=C6Oc7c(ccc(NCCNc8nc(Cl)nc(Nc9ccc(cc9[S]([O-])(=O)=O)[S]([O-])(=O)=O)n8)c7[S]([O-])(=O)=O)N=C6C(=C5Oc4c3[S]([O-])(=O)=O)Cl)Cl)n2)c(c1)[S]([O-])(=O)=O,-0.8795540191
A-4221,"tris(2-hydroxypropan-1-aminium) 2-hydroxypropane-1,2,3-tricarboxylate",KFAOXEXTCSIFGD-UHFFFAOYSA-N,CC(O)CN.OC(=O)CC(O)(CC(O)=O)C(O)=O,0.8629201268
A-4223,"2-methylbenzene-1,3-diol",ZTMADXFOCUXMJE-UHFFFAOYSA-N,Cc1c(O)cccc1O,0.1927727267
A-4224,2-methylbut-3-en-2-ol,HNVRRHSXBLFLIG-UHFFFAOYSA-N,CC(C)(O)C=C,0.351057238
A-4225,dilithium adipate,ZPJGNHUPXGDASP-UHFFFAOYSA-L,[Li+].[Li+].[O-]C(=O)CCCCC([O-])=O,0.0846221527
A-4226,dilithium(1+) ion decanedioate,QFFPUGXEOWMNCP-UHFFFAOYSA-L,[Li+].[Li+].[O-]C(=O)CCCCCCCCC([O-])=O,-0.0473478928
A-4227,dilithium(1+) ion nonanedioate,KCEQQLDYFGMIGU-UHFFFAOYSA-L,[Li+].[Li+].[O-]C(=O)CCCCCCCC([O-])=O,-0.017921985
A-4228,"7-amino-4-hydroxy-3-[[4-[(4-sulphophenyl)azo]phenyl]azo]naphthalene-2-sulphonic acid, compound with 2,2',2''-nitrilotriethanol (1:2)",UXTCBUCQMQNXQI-XDJFIHLNSA-N,Nc1ccc2C(=O)C(=N/Nc3ccc(cc3)N=Nc4ccc(cc4)[S](O)(=O)=O)\C(=Cc2c1)[S](O)(=O)=O.OCCN(CCO)CCO.OCCN(CCO)CCO,-0.6359046156
A-4232,"disodium 7-[(dichloro-1,3,5-triazin-2-yl)amino]-4-hydroxy-3-(2-{4-[2-(sulfonatooxy)ethanesulfonyl]phenyl}diazen-1-yl)naphthalene-2-sulfonate",QPRQPQPFGRDKCN-UHFFFAOYSA-L,[Na+].[Na+].Oc1c2ccc(Nc3nc(Cl)nc(Cl)n3)cc2cc(c1N=Nc4ccc(cc4)[S](=O)(=O)CCO[S]([O-])(=O)=O)[S]([O-])(=O)=O,-1.5783823574
A-4236,"2-hydroxypropanoic acid; 7-{[bis({[3-(diethylamino)propyl]amino})-1,3,5-triazin-2-yl]amino}-4-hydroxy-3-[(E)-2-(2-oxo-2,3-dihydro-1H-1,3-benzodiazol-5-yl)diazen-1-yl]naphthalene-2-sulfonic acid",LAVCAJLTFZEZAW-UHFFFAOYSA-N,CCN(CC)CCCNc1nc(NCCCN(CC)CC)nc(Nc2ccc3c(O)c(N=Nc4ccc5NC(=O)Nc5c4)c(cc3c2)[S](O)(=O)=O)n1.CC(O)C(O)=O,-0.64043406
A-4237,tin(4+) disulfate,OBBXFSIWZVFYJR-UHFFFAOYSA-L,[Sn++].[O-][S]([O-])(=O)=O,-0.0578238563
A-4238,"4-[(2,4-dichloro-5-methoxyphenyl)amino]-6-methoxy-7-[3-(4-methylpiperazin-1-yl)propoxy]quinoline-3-carbonitrile",UBPYILGKFZZVDX-UHFFFAOYSA-N,COc1cc(Nc2c(cnc3cc(OCCCN4CCN(C)CC4)c(OC)cc23)C#N)c(Cl)cc1Cl,-4.8795513261
A-4240,acetaldehyde oxime,FZENGILVLUJGJX-NSCUHMNNSA-N,C/C=N/O,0.4958194622
A-4241,lithium(1+) ion bromide,AMXOYNBUYSYVKV-UHFFFAOYSA-M,[Li+].[Br-],1.3237062702
A-4242,A mixture of RR and RS isomers of: (2-(2-methoxy-1-methyl)ethoxy)-1-methylethyl acetate; (2-(2-methoxy-2-methyl)ethoxy)-1-methylethyl acetate; (2-(2-methoxy-2-methyl)ethoxy)-2-methylethyl acetate; (2-(2-methoxy-1-methyl)ethoxy)-2-methylethyl acetate,USDXBNSCKZJDLC-UHFFFAOYSA-N,CCC(OCCCOC)OC(C)=O,-0.0168484647
A-4244,sodium dithionite,JVBXVOWTABLYPX-UHFFFAOYSA-L,[Na+].[Na+].[O-][S](=O)[S]([O-])=O,0.0182921287
A-4246,(2E)-but-2-enal,MLUCVPSAIODCQM-IHWYPQMZSA-N,C\C=C/C=O,0.4120163187
A-4248,"2,3-dimethyloxirane",PQXKWPLDPFFDJP-UHFFFAOYSA-N,CC1OC1C,0.3972950779
A-4249,sodium nonyl sulfate,FTWCSAMTIKSPAT-UHFFFAOYSA-M,[Na+].CCCCCCCCCO[S]([O-])(=O)=O,-0.1361989598
A-4250,Basic red 1:1,WDTZNHRKHNKDOU-UHFFFAOYSA-M,[Cl-].CCNc1cc2[o+]c3cc(NCC)c(C)cc3c(c2cc1C)c4ccccc4C(=O)OC,-1.3909846109
A-4252,4-ethoxyaniline,IMPPGHMHELILKG-UHFFFAOYSA-N,CCOc1ccc(N)cc1,-0.860835326
A-4254,3-(2-chlorophenyl)-3-oxopropanenitrile,SBSWHTFHLWSSQS-UHFFFAOYSA-N,Clc1ccccc1C(=O)CC#N,-2.1751395948
A-4257,2-[(2-methylprop-2-enoyl)oxy]ethyl 3-oxobutanoate,IBDVWXAVKPRHCU-UHFFFAOYSA-N,CC(=O)CC(=O)OCCOC(=O)C(C)=C,-1.0636822045
A-4258,"1,3-dihydro-2-benzofuran-1-one",WNZQDUSMALZDQF-UHFFFAOYSA-N,O=C1OCc2ccccc12,-0.8627210528
A-4259,"3-(5-imino-3-methyl-4,5-dihydro-1H-pyrazol-1-yl)benzene-1-sulfonic acid",INHXSMASASFALB-UHFFFAOYSA-N,CC1=NN(C(=N)C1)c2cccc(c2)[S](O)(=O)=O,-1.1387882185
A-4260,1-benzylpiperidin-4-one,SJZKULRDWHPHGG-UHFFFAOYSA-N,O=C1CCN(CC1)Cc2ccccc2,-1.0169828584
A-4264,methyl (2Z)-3-aminobut-2-enoate,XKORCTIIRYKLLG-ONEGZZNKSA-N,COC(=O)\C=C(/C)N,-0.8059235439
A-4265,silanedione magnesium sodium hydrofluoride,DESJYLHXGYGZJG-UHFFFAOYSA-N,F.[Na].[MgH2].O=[Si]=O,-0.8566651274
A-4267,"1-N,1-N-bis(2-hydroxyethyl)benzene-1,4-bis(aminium) sulfate",KMCFMEHSEWDYKG-UHFFFAOYSA-N,Nc1ccc(cc1)N(CCO)CCO.O[S](O)(=O)=O,-0.2184130526
A-4268,ammonium hydrogen carbonate,QOPSSYZLVIENBR-UHFFFAOYSA-J,[NH4+].[NH4+].[Zn++].[Zn++].[O-]C([O-])=O.[O-]C([O-])=O.[O-]C([O-])=O,-0.2897617622
A-4269,disodium sulfanediide,VDQVEACBQKUUSU-UHFFFAOYSA-M,[Na+].[Na+].[SH-],0.3524906593
A-4270,nickel(2+) ion diacetate,AIYYMMQIMJOTBM-UHFFFAOYSA-L,[Ni++].CC([O-])=O.CC([O-])=O,0.0005376801
A-4271,"1,1,1,3,3,3-hexafluoropropan-2-ol",BYEAHWXPCBROCE-UHFFFAOYSA-N,OC(C(F)(F)F)C(F)(F)F,0.020110333
A-4274,"trisodium trihydrogen 5,5',5''-(1,3,5-triazine-2,4,6-triyltriimino)tris[5-sulphonatosalicylate]",ZUWXIYHFBSJORS-UHFFFAOYSA-K,[Na+].[Na+].[Na+].OC(=O)C1=CC(CC=C1O)(Nc2nc(NC3(CC=C(O)C(=C3)C(O)=O)[S]([O-])(=O)=O)nc(NC4(CC=C(O)C(=C4)C(O)=O)[S]([O-])(=O)=O)n2)[S]([O-])(=O)=O,-0.6896460114
A-4276,calcium diformate,CBOCVOKPQGJKKJ-UHFFFAOYSA-L,[Ca++].[O-]C=O.[O-]C=O,0.1212110943
A-4277,2-(acetyloxy)ethyl acetate,JTXMVXSTHSMVQF-UHFFFAOYSA-N,CC(=O)OCCOC(C)=O,0.068474963
A-4278,"disodium 1-amino-9,10-dihydro-9,10-dioxo-4-[[4-[[2-(sulphonatooxy)ethyl]sulphonyl]phenyl]amino]anthracene-2-sulphonate",JALBGZPFNQMHSM-UHFFFAOYSA-L,[Na+].[Na+].Nc1c2C(=O)c3ccccc3C(=O)c2c(Nc4ccc(cc4)[S](=O)(=O)CCO[S]([O-])(=O)=O)cc1[S]([O-])(=O)=O,-0.5639623965
A-4281,dioxodiarsoxane,QTLQKAJBUDWPIB-UHFFFAOYSA-N,[O--].[O--].[O--].[As+3].[As+3],-1.0458962962
A-4282,disodium 2-[(E)-2-(4-{4-[(E)-2-(2-sulfonatophenyl)ethenyl]phenyl}phenyl)ethenyl]benzene-1-sulfonate,PMPJQLCPEQFEJW-GNTLFSRWSA-L,[Na+].[Na+].[O-][S](=O)(=O)c1ccccc1\C=C/c2ccc(cc2)c3ccc(cc3)\C=C/c4ccccc4[S]([O-])(=O)=O,-1.504668533
A-4283,"1,1,1,3,3,3-hexachloroacetone",DOJXGHGHTWFZHK-UHFFFAOYSA-N,ClC(Cl)(Cl)C(=O)C(Cl)(Cl)Cl,-1.1797979201
A-4285,dibutoxyphosphinic acid,JYFHYPJRHGVZDY-UHFFFAOYSA-N,CCCCO[P](O)(=O)OCCCC,-1.0872511921
A-4286,methoxyethene,XJRBAMWJDBPFIM-UHFFFAOYSA-N,COC=C,-0.5310304973
A-4287,2-ethoxyethyl 2-methylprop-2-enoate,SFPNZPQIIAJXGL-UHFFFAOYSA-N,CCOCCOC(=O)C(C)=C,-0.9674738601
A-4291,ethyl 2-chloro-3-oxobutanoate,RDULEYWUGKOCMR-UHFFFAOYSA-N,CCOC(=O)C(Cl)C(C)=O,-0.9859492465
A-4293,"trisodium 4-{[4-({3-[(4-amino-6-chloro-1,3,5-triazin-2-yl)amino]-4-sulfonatophenyl}amino)-6-chloro-1,3,5-triazin-2-yl]amino}-6-[(E)-2-(5-carbamoyl-1-ethyl-2-hydroxy-4-methyl-6-oxo-1,6-dihydropyridin-3-yl)diazen-1-yl]benzene-1,3-disulfonate",FGZWHMWBAASFOQ-YMOXRGJDSA-K,[Na+].[Na+].[Na+].CCN1C(=O)C(=N/Nc2cc(Nc3nc(Cl)nc(Nc4ccc(c(Nc5nc(N)nc(Cl)n5)c4)[S]([O-])(=O)=O)n3)c(cc2[S]([O-])(=O)=O)[S]([O-])(=O)=O)\C(=C(C(N)=O)C1=O)C,-0.7590012125
A-4296,1-(diethylamino)propan-2-ol,BHUXAQIVYLDUQV-UHFFFAOYSA-N,CCN(CC)CC(C)O,0.1021113643
A-4301,ethanethioamide,YUKQRDCYNOVPGJ-UHFFFAOYSA-N,CC(N)=S,0.3363395335
A-4303,1-methoxypropan-2-yl acetate,LLHKCFNBLRBOGN-UHFFFAOYSA-N,COCC(C)OC(C)=O,0.0830232388
A-4304,ammonium sodium 2-[4-[[1-[[(2-methoxy-5-methyl-4-sulphonatophenyl)amino]carbonyl]-2-oxopropyl]azo]phenyl]-6-methylbenzothiazole-7-sulphonate,BPSOMXDZJFRMBW-UHFFFAOYSA-M,[NH4+].[Na+].COc1cc(c(C)cc1NC(=O)C(N=Nc2ccc(cc2)c3sc4c(ccc(C)c4[S]([O-])(=O)=O)n3)C(C)=O)[S]([O-])(=O)=O,-0.6230624777
A-4305,"5,8,11,13,16,19-hexaoxatricosane",DKWHHTWSTXZKDW-UHFFFAOYSA-N,CCCCOCCOCCOCOCCOCCOCCCC,-1.3016357757
A-4306,"3,6-dimethyl-1,4-dioxane-2,5-dione",JJTUDXZGHPGLLC-UHFFFAOYSA-N,CC1OC(=O)C(C)OC1=O,-0.9360258625
A-4307,bromo(chloro)methane,JPOXNPPZZKNXOV-UHFFFAOYSA-N,ClCBr,-0.8891641024
A-4308,2-aminobenzamide,PXBFMLJZNCDSMP-UHFFFAOYSA-N,NC(=O)c1ccccc1N,-0.9139223167
A-4312,(3Z)-hex-3-en-1-ol,UFLHIIWVXFIJGU-ARJAWSKDSA-N,CC\C=C/CCO,-0.7858548038
A-4316,"2-methoxy-3,4-dihydro-2H-pyran",XCYWUZHUTJDTGS-UHFFFAOYSA-N,COC1CCC=CO1,-0.853333105
A-4318,"4,5-bis(hydroxymethyl)-2-methylpyridin-3-ol hydrochloride",ZUFQODAHGAHPFQ-UHFFFAOYSA-N,[H+].[Cl-].Cc1ncc(CO)c(CO)c1O,-0.1117125828
A-4321,tetrasodium tris(peroxol) dicarbonate,MSLRPWGRFCKNIZ-UHFFFAOYSA-J,[Na+].[Na+].[Na+].[Na+].OO.OO.OO.[O-]C([O-])=O.[O-]C([O-])=O,-0.3094338224
A-4322,"Nonylphenol, ethoxylated",BLXVTZPGEOGTGG-UHFFFAOYSA-N,CCCCCCCCCc1ccc(OCCOCCO)cc1,-0.3045102393
A-4323,amino(imino)methanaminium; cyanosulfanide,ZJYYHGLJYGJLLN-UHFFFAOYSA-N,NC(N)=N.SC#N,1.106488088
A-4324,sodium dodecyl sulfate,DBMJMQXJHONAFJ-UHFFFAOYSA-M,[Na+].CCCCCCCCCCCCO[S]([O-])(=O)=O,-0.2838814083
A-4325,"3-methyl-2-(2-oxo-1,3-diazinan-1-yl)butanoic acid",AFGBRTKUTJQHIP-UHFFFAOYSA-N,CC(C)C(N1CCCNC1=O)C(O)=O,-1.1028619258
A-4326,1-cyanoprop-2-en-1-yl acetate,MEHLEOUIWVWVBF-UHFFFAOYSA-N,CC(=O)OC(C=C)C#N,-0.8986939452
A-4329,2-methylcyclohexanol,NDVWOBYBJYUSMF-UHFFFAOYSA-N,CC1CCCCC1O,-0.864495868
A-4334,1-phenoxypropan-2-ol,IBLKWZIFZMJLFL-UHFFFAOYSA-N,CC(O)COc1ccccc1,-1.0034177306
A-4335,2-(1-methylcarbamimidamido)acetic acid,CVSVTCORWBXHQV-UHFFFAOYSA-N,CN(CC(O)=O)C(N)=N,-0.9387416733
A-4336,2-methylaniline,RNVCVTLRINQCPJ-UHFFFAOYSA-N,Cc1ccccc1N,-0.8539252345
A-4337,3-[(2-ethylhexyl)oxy]propan-1-amine,DVFGEIYOLIFSRX-UHFFFAOYSA-N,CCCCC(CC)COCCCN,-1.096509119
A-4339,3-methylbutanal,YGHRJJRRZDOVPD-UHFFFAOYSA-N,CC(C)CC=O,-0.7590833569
A-4342,L-histidine monohydrochloride,QZNNVYOVQUKYSC-JEDNCBNOSA-N,[Cl-].N[C@@H](Cc1[nH]cnc1)C(O)=O.[H+],-0.1076498856
A-4344,pentasodium bis(phosphonatooxy)phosphinate,HWGNBUXHKFFFIH-UHFFFAOYSA-I,[Na+].[Na+].[Na+].[Na+].[Na+].[O-][P]([O-])(=O)O[P]([O-])(=O)O[P]([O-])([O-])=O,-0.3954232123
A-4348,"sodium (2R)-2-[(1R)-1,2-dihydroxyethyl]-4-hydroxy-5-oxo-2,5-dihydrofuran-3-olate",QNSCGSPRKIPKTN-RKJRWTFHSA-N,[Na+].O[C@H](C[O-])[C@H]1OC(=C(O)C1=O)O,-0.1325447734
A-4349,2-methoxyethyl prop-2-enoate,HFCUBKYHMMPGBY-UHFFFAOYSA-N,COCCOC(=O)C=C,0.0439416784
A-4350,[(4-sulfamoylphenyl)amino]azanium chloride,IKEURONJLPUALY-UHFFFAOYSA-N,[H+].[Cl-].NNc1ccc(cc1)[S](N)(=O)=O,-0.1912743698
A-4351,"1,1-dimethylurea",YBBLOADPFWKNGS-UHFFFAOYSA-N,CN(C)C(N)=O,0.2124315669
A-4352,potassium dicyanogolduide,XTFKWYDMKGAZKK-UHFFFAOYSA-N,[K+].[Au+].[C-]#N.[C-]#N,-0.3042087283
A-4353,decasodium 2-[(E)-2-{2-sulfonato-4-[(E)-2-{3-sulfonato-4-[(E)-2-{2-sulfonato-4-[(E)-2-{4-[(E)-2-(4-sulfonatophenyl)diazen-1-yl]phenyl}diazen-1-yl]phenyl}ethenyl]phenyl}diazen-1-yl]phenyl}ethenyl]-5-[(E)-2-{4-[(E)-2-(4-sulfonatophenyl)diazen-1-yl]phenyl}diazen-1-yl]benzene-1-sulfonate 2-[(E)-2-{2-sulfonato-4-[(E)-2-{4-[(E)-2-(4-sulfonatophenyl)diazen-1-yl]phenyl}diazen-1-yl]phenyl}ethenyl]-5-[(E)-2-{4-[(E)-2-(4-sulfonatophenyl)diazen-1-yl]phenyl}diazen-1-yl]benzene-1-sulfonate,MVVIVTYJFSLIBC-QISMBRTESA-D,[Na+].[Na+].[Na+].[Na+].[Na+].[Na+].[Na+].[Na+].[Na+].[Na+].[O-][S](=O)(=O)c1ccc(cc1)N=Nc2ccc(cc2)N=Nc3ccc(\C=C\c4ccc(cc4[S]([O-])(=O)=O)N=Nc5ccc(cc5)N=Nc6ccc(cc6)[S]([O-])(=O)=O)c(c3)[S]([O-])(=O)=O.[O-][S](=O)(=O)c7ccc(cc7)N=Nc8ccc(cc8)N=Nc9ccc(/C=C/c%10ccc(cc%10[S]([O-])(=O)=O)N=Nc%11ccc(\C=C\c%12ccc(cc%12[S]([O-])(=O)=O)N=Nc%13ccc(cc%13)N=Nc%14ccc(cc%14)[S]([O-])(=O)=O)c(c%11)[S]([O-])(=O)=O)c(c9)[S]([O-])(=O)=O,-1.2315456851
A-4356,2-hydroxy-2-phenylacetic acid,IWYDHOAUDWTVEP-UHFFFAOYSA-N,OC(C(O)=O)c1ccccc1,-0.0321269405
A-4359,"5,5-dimethylimidazolidine-2,4-dione",YIROYDNZEPTFOL-UHFFFAOYSA-N,CC1(C)NC(=O)NC1=O,0.0384738201
A-4361,"tetrasodium 5-({4-[(2-hydroxyethyl)amino]-6-[(3-sulfonatophenyl)amino]-1,3,5-triazin-2-yl}amino)-2-[(E)-2-[4-({4-[(2-hydroxyethyl)amino]-6-[(3-sulfonatophenyl)amino]-1,3,5-triazin-2-yl}amino)-2-sulfonatophenyl]ethenyl]benzene-1-sulfonate",HECFMGCMMKUMIN-YZNHWISSSA-N,[Na+].[Na+].[Na+].[Na+].OCCNc1nc(Nc2cccc(c2)[S](O)(=O)=O)nc(Nc3ccc(\C=C\c4ccc(Nc5nc(NCCO)nc(Nc6cccc(c6)[S](O)(=O)=O)n5)cc4[S](O)(=O)=O)c(c3)[S](O)(=O)=O)n1,-0.8876904267
A-4364,phenylphosphonic acid,QLZHNIAADXEJJP-UHFFFAOYSA-N,O[P](O)(=O)c1ccccc1,-1.0269230581
A-4367,"disodium 2-[(E)-2-[3-methyl-5-oxo-1-(4-sulfonatophenyl)-4,5-dihydro-1H-pyrazol-4-yl]diazen-1-yl]benzoate",RTBLVNSNIFUUFC-UHFFFAOYSA-L,[Na+].[Na+].CC1=NN(C(=O)C1N=Nc2ccccc2C([O-])=O)c3ccc(cc3)[S]([O-])(=O)=O,-1.491314993
A-4371,"sodium 4-[(dichloro-1,3,5-triazin-2-yl)amino]benzene-1-sulfonate",BAINTIMFWTXLNC-UHFFFAOYSA-M,[Na+].[O-][S](=O)(=O)c1ccc(Nc2nc(Cl)nc(Cl)n2)cc1,-1.3810309201
A-4372,formaldehyde; 2-(2-hydroxyethylamino)ethanol; 2-methyloxirane; 2-nonylphenol,RUMPVAYNMPZNCZ-UHFFFAOYSA-N,CCCCCCCCCc1ccccc1O.CC2CO2.OCCNCCO.C=O,-1.4630694907