ID,Name,InChIKey,SMILES,Solubility
C-810,mitomycin c,NWIBSHFKIJFRCO-UHFFFAOYSA-N,COC12C(COC(N)=O)C3=C(N1CC4NC24)C(=O)C(=C(N)C3=O)C,-2.56
C-812,betamethasone-17-valerate,SNHRLVCMMWUAJD-UHFFFAOYSA-N,CCCCC(=O)OC1(C(C)CC2C3CCC4=CC(=O)C=CC4(C)C3(F)C(O)CC12C)C(=O)CO,-4.71
C-814,"2,3-dichlorodibenzodioxin",YCIYTXRUZSDMRZ-UHFFFAOYSA-N,ClC1=CC2=C(OC3=C(O2)C=CC=C3)C=C1Cl,-7.23
C-817,quinidine,AQMBZJFAYLBACQ-UHFFFAOYSA-N,COC1=CC2=C(C=CN=C2C=C1)C(O)C3CN4CCC3C(C4)C=C,-3.36
C-818,"2,2',3,4,5'-pentachlorobiphenyl",OPKYDBFRKPQCBS-UHFFFAOYSA-N,ClC1=CC(=C(Cl)C=C1)C2=C(Cl)C(=C(Cl)C=C2)Cl,-7.91
C-819,"7,7-dioxo-4,5,6,7-tetrahydro-2-sulfamoylthieno[2,3-b]thiopyran",VVSSGCCPNDSLPL-UHFFFAOYSA-N,N[S](=O)(=O)C1=CC2=C(S1)[S](=O)(=O)CCC2,-2.68
C-820,ethoxzolamide;  2-sulfamoyl-6-ethoxybenzothiazole; 6-ethoxybenzothiazole-2-sulfonamide,OUZWUKMCLIBBOG-UHFFFAOYSA-N,CCOC1=CC2=C(C=C1)N=C(S2)[S](N)(=O)=O,-4.03
C-824,buparvaquone,KLLIVCPQDTYMLC-UHFFFAOYSA-N,CC(C)(C)C1CCC(CC1)CC2=C(O)C(=O)C3=C(C=CC=C3)C2=O,-7.04
C-833,n1-(4-ethylphenyl)sulfanilamide;  1-sulfanilamido-4-ethylbenzene,JWTZQLSHXWBZJJ-UHFFFAOYSA-N,CCC1=CC=C(N[S](=O)(=O)C2=CC=C(N)C=C2)C=C1,-4.52
C-839,n1-(4-chlorophenyl)sulfanilamide,RBJGYDGKXTYSSL-UHFFFAOYSA-N,NC1=CC=C(C=C1)[S](=O)(=O)NC2=CC=C(Cl)C=C2,-4.13
C-840,prodiamine,RSVPPPHXAASNOL-UHFFFAOYSA-N,CCCN(CCC)C1=C(C(=C(C=C1[N+]([O-])=O)C(F)(F)F)N)[N+]([O-])=O,-7.07
C-843,n1-(4-methoxyphenyl)sulfanilamide;  4-methoxysulfabenzene,PKCILPHWDZXVQT-UHFFFAOYSA-N,COC1=CC=C(N[S](=O)(=O)C2=CC=C(N)C=C2)C=C1,-4.23
C-844,n1-(4-cyanophenyl)sulfanilamide;  4-cyanosulfabenzene,PLPNDNWDSGFETI-UHFFFAOYSA-N,NC1=CC=C(C=C1)[S](=O)(=O)NC2=CC=C(C=C2)C#N,-3.6
C-846,propoxyphene,XLMALTXPSGQGBX-UHFFFAOYSA-N,CCC(=O)OC(CC1=CC=CC=C1)(C(C)CN(C)C)C2=CC=CC=C2,-2.61
C-848,disopyramide,UVTNFZQICZKOEM-UHFFFAOYSA-N,CC(C)N(CCC(C(N)=O)(C1=CC=CC=C1)C2=NC=CC=C2)C(C)C,-1.7
C-850,"5,5-diphenylbarbituric  acid",IKVPZYAOGOJTLK-UHFFFAOYSA-N,O=C1NC(=O)C(C(=O)N1)(C2=CC=CC=C2)C3=CC=CC=C3,-4.2
C-854,n-(4-nitrophenyl)benzenesulfonamide,SWSJPCDGJYPPCS-UHFFFAOYSA-N,[O-][N+](=O)C1=CC=C(N[S](=O)(=O)C2=CC=CC=C2)C=C1,-3.93
C-857,sulfamethoxypyridazine;  3-sulfa-6-methoxypyridazine,VLYWMPOKSSWJAL-UHFFFAOYSA-N,COC1=CC=C(N[S](=O)(=O)C2=CC=C(N)C=C2)N=N1,-2.68
C-863,oxycarboxin,AMEKQAFGQBKLKX-UHFFFAOYSA-N,CC1=C(C(=O)NC2=CC=CC=C2)[S](=O)(=O)CCO1,-2.43
C-864,n1-(3-chloro-4-methylphenyl)sulfanilamide;  3-chloro-4-methylsulfabenzene,KSNBKURTGGLQHU-UHFFFAOYSA-N,CC1=C(Cl)C=C(N[S](=O)(=O)C2=CC=C(N)C=C2)C=C1,-4.91
C-865,n1-(4-chloro-2-methylphenyl)sulfanilamide;  4-chloro-2-methylsulfabenzene,QVUSGTRNWLETRQ-UHFFFAOYSA-N,CC1=C(N[S](=O)(=O)C2=CC=C(N)C=C2)C=CC(=C1)Cl,-4.35
C-866,triamcinolone  diacetate,XGMPVBXKDAHORN-UHFFFAOYSA-N,CC(=O)OCC(=O)C1(O)C(CC2C3CCC4=CC(=O)C=CC4(C)C3(F)C(O)CC12C)OC(C)=O,-4.13
C-868,"n-(2,3-dichlorophenyl)benzenesulfonamide",VAIYLVSTCHKPAY-UHFFFAOYSA-N,ClC1=CC=CC(=C1Cl)N[S](=O)(=O)C2=CC=CC=C2,-4.73
C-869,n1-(4-chlorophenyl)-2-methylsulfanilamide; 4-chloro-1-(4-amino-2-methylphenylsulfonamido)benzene,WKVHKLUGADLQMG-UHFFFAOYSA-N,CC1=C(C=CC(=C1)N)[S](=O)(=O)NC2=CC=C(Cl)C=C2,-4.42
C-870,"sulfisomidine;  2,6-dimethyl-4-sulfapyrimidine",YZMCKZRAOLZXAZ-UHFFFAOYSA-N,CC1=CC(=NC(=N1)C)N[S](=O)(=O)C2=CC=C(N)C=C2,-2.3
C-872,methaqualone;  2-methyl-3-(2-tolyl)quinazolin-4-one,JEYCTXHKTXCGPB-UHFFFAOYSA-N,CC1=CC=CC=C1N2C(=NC3=C(C=CC=C3)C2=O)C,-2.92
C-874,"2,3,3',4,4',5'-hexachlorobiphenyl",YTWXDQVNPCIEOX-UHFFFAOYSA-N,ClC1=CC=C(C2=CC(=C(Cl)C(=C2)Cl)Cl)C(=C1Cl)Cl,-9.1
C-875,n1-(5-chloro-2-methylphenyl)sulfanilamide;  5-chloro-2-methylsulfabenzene,PGWAMIHTVMBZDQ-UHFFFAOYSA-N,CC1=C(N[S](=O)(=O)C2=CC=C(N)C=C2)C=C(Cl)C=C1,-3.98
C-877,n1-(2-chloro-4-methylphenyl)sulfanilamide;  2-chloro-4-methylsulfabenzene,IIQTWTHBDAEKBJ-UHFFFAOYSA-N,CC1=CC(=C(N[S](=O)(=O)C2=CC=C(N)C=C2)C=C1)Cl,-4.32
C-882,n-(2-nitrophenyl)benzenesulfonamide,QYEQJQLZLZRQEB-UHFFFAOYSA-N,[O-][N+](=O)C1=CC=CC=C1N[S](=O)(=O)C2=CC=CC=C2,-4.01
C-885,"2,2',3,3',4,4'-hexachlorobiphenyl",BTAGRXWGMYTPBY-UHFFFAOYSA-N,ClC1=C(Cl)C(=C(C=C1)C2=CC=C(Cl)C(=C2Cl)Cl)Cl,-8.78
C-891,n1-(2-chlorophenyl)-2-methylsulfanilamide; 2-chloro-1-(4-amino-2-methylphenylsulfonamido)benzene,RYGRTXQPJZRDAK-UHFFFAOYSA-N,CC1=C(C=CC(=C1)N)[S](=O)(=O)NC2=C(Cl)C=CC=C2,-5.05
C-894,griseofulvin,DDUHZTYCFQRHIY-UHFFFAOYSA-N,COC1=CC(=C2C(=O)C3(OC2=C1Cl)C(C)CC(=O)C=C3OC)OC,-3.97
C-900,"2,2',4,4',6,6'-hexachlorobiphenyl",ICOAEPDGFWLUTI-UHFFFAOYSA-N,ClC1=CC(=C(C(=C1)Cl)C2=C(Cl)C=C(Cl)C=C2Cl)Cl,-8.71
C-901,"1,5-bis(butanoyloxymethyl)allopurinol",QQAOTACZYKWDQH-UHFFFAOYSA-N,CCCC(=O)OCN1C=NC2=C(C=N[N]2COC(=O)CCC)C1=O,-3.83
C-907,triamcinolone hexacetonide,TZIZWYVVGLXXFV-UHFFFAOYSA-N,CC(C)(C)CC(=O)OCC(=O)C12OC(C)(C)OC1CC3C4CCC5=CC(=O)C=CC5(C)C4(F)C(O)CC23C,-5.12
C-910,nitrazepam,KJONHKAYOJNZEC-UHFFFAOYSA-N,[O-][N+](=O)C1=CC=C2NC(=O)CN=C(C3=CC=CC=C3)C2=C1,-3.8
C-911,sulfacytine;  1-ethyl-4-sulfapyrimidine-2-one,SIBQAECNSSQUOD-UHFFFAOYSA-N,CCN1C=CC(=NC1=O)N[S](=O)(=O)C2=CC=C(N)C=C2,-2.23
C-913,5-methyl-2-(4-nitrophenylsulfonamido)pyridine;  n-(5-methylpyridin-2-yl)-4-nitrobenzenesulfonamide,GSASPEJNWFVWQK-UHFFFAOYSA-N,CC1=CC=C(N[S](=O)(=O)C2=CC=C(C=C2)[N+]([O-])=O)N=C1,-4.29
C-916,n1-(4-nitrophenyl)sulfanilamide,ACJNABKXDUDYAM-UHFFFAOYSA-N,NC1=CC=C(C=C1)[S](=O)(=O)NC2=CC=C(C=C2)[N+]([O-])=O,-3.94
C-919,chlordiazepoxide,ANTSCNMPPGJYLG-UHFFFAOYSA-N,CNC1=NC2=CC=C(Cl)C=C2C(=[N+]([O-])C1)C3=CC=CC=C3,-4.48
C-920,4-chloro-n1-(2-chlorophenyl)sulfanilamide,RLAKZPRFFJDPOI-UHFFFAOYSA-N,NC1=CC=C(C(=C1)Cl)[S](=O)(=O)NC2=CC=C(Cl)C=C2,-4.59
C-921,"n1-(2,5-dichlorophenyl)sulfanilamide",PQUPSQYCUSDJGL-UHFFFAOYSA-N,NC1=CC=C(C=C1)[S](=O)(=O)NC2=CC(=CC=C2Cl)Cl,-4.4
C-922,"n1-(2,3-dichlorophenyl)sulfanilamide",DUAASAVOKXBDLI-UHFFFAOYSA-N,NC1=CC=C(C=C1)[S](=O)(=O)NC2=CC=CC(=C2Cl)Cl,-4.73
C-923,pefloxacin,FHFYDNQZQSQIAI-UHFFFAOYSA-N,CCN1C=C(C(O)=O)C(=O)C2=C1C=C(N3CCN(C)CC3)C(=C2)F,-1.47
C-925,"2-hydroxy-n-(3,5-dimethyl-4-isoxazolyl)-1,4-naphthoquinone-4-imine",JNQQEDYUWRZNDU-UHFFFAOYSA-N,CC1=C(N=C2C=C(O)C(=O)C3=C2C=CC=C3)C(=NO1)C,-3.89
C-926,"7-hydroxy-4-oxo-4,5,6,7-tetrahydro-2-sulfamoylthieno[3,2-b]thiopyran",XEROSHXMTSNDBW-UHFFFAOYSA-N,N[S](=O)(=O)C1=CC2=C(S1)C(O)CC[S]2=O,-1.57
C-927,oryzalin;  surflan,UNAHYJYOSSSJHH-UHFFFAOYSA-N,CCCN(CCC)C1=C(C=C(C=C1[N+]([O-])=O)[S](N)(=O)=O)[N+]([O-])=O,-5.13
C-928,n1-(2-nitrophenyl)sulfanilamide,BRVWBJZREZWBRX-UHFFFAOYSA-N,NC1=CC=C(C=C1)[S](=O)(=O)NC2=CC=CC=C2[N+]([O-])=O,-4.49
C-929,2-chloro-n1-(2-chlorophenyl)sulfanilamide,WLGLMOOOFGAYSX-UHFFFAOYSA-N,NC1=CC(=C(C=C1)[S](=O)(=O)NC2=CC=CC=C2Cl)Cl,-5.11
C-932,n1-(3-chloro-2-methoxyphenyl)sulfanilamide; 1-sulfanilamido-3-chloro-2-methoxybenzene; 1-sulfa-3-chloro-2-methoxybenzene,GUQMUFCFDMUPMN-UHFFFAOYSA-N,COC1=C(N[S](=O)(=O)C2=CC=C(N)C=C2)C=CC=C1Cl,-4.15
C-937,loxapine,XJGVXQDUIWGIRW-UHFFFAOYSA-N,CN1CCN(CC1)C2=NC3=C(OC4=C2C=C(Cl)C=C4)C=CC=C3,-4.42
C-939,3-(acetyloxymethyl)phenytoin,FBFCVJNZKBVVRP-UHFFFAOYSA-N,CC(=O)OCN1C(=O)NC(C1=O)(C2=CC=CC=C2)C3=CC=CC=C3,-4.47
C-941,n-(methyl)thalidomide,IYYPLFUVXTVBLD-UHFFFAOYSA-N,CN1C(=O)CCC(N2C(=O)C3=C(C=CC=C3)C2=O)C1=O,-2.99
C-942,n1-(4-iodophenyl)sulfanilamide,GNYYVWOTRVNKCO-UHFFFAOYSA-N,NC1=CC=C(C=C1)[S](=O)(=O)NC2=CC=C(I)C=C2,-4.52
C-944,azinphos-methyl;  methyl-azinphos,CJJOSEISRRTUQB-UHFFFAOYSA-N,CO[P](=S)(OC)SCN1N=NC2=CC=CC=C2C1=O,-4.04
C-945,mebendazole,OPXLLQIJSORQAM-UHFFFAOYSA-N,COC(=O)NC1=NC2=CC(=CC=C2[NH]1)C(=O)C3=CC=CC=C3,-3.88
C-947,azathioprine,LMEKQMALGUDUQG-UHFFFAOYSA-N,C[N]1C=NC(=C1SC2=NC=NC3=C2[NH]C=N3)[N+]([O-])=O,-3.21
C-948,"2-benzyl-3-methyl-2,3-dihydro-1h-imidazo[5,1b]quinazolin-9-one; 2-benzyl-3-methylimidazoquinazolone",PAEHEULFAIRJNM-UHFFFAOYSA-N,CC1N(CN2C(=O)C3=C(C=CC=C3)N=C12)CC4=CC=CC=C4,-4
C-950,4-(5-ethyl-3-methylisoxazol-4-ylimino)-2-hydroxy-4h-naphthalen-1-one,TWUYULBKODYURR-UHFFFAOYSA-N,CCC1=C(N=C2C=C(O)C(=O)C3=C2C=CC=C3)C(=NO1)C,-2.72
C-951,"2,2',3,4,4',5',6-heptachlorobiphenyl",KQBFUDNJKCZEDQ-UHFFFAOYSA-N,ClC1=CC(=C(C=C1Cl)C2=C(Cl)C=C(Cl)C(=C2Cl)Cl)Cl,-7.92
C-955,n-(4-ethoxyphenyl)-4-nitrobenzenesulfonamide,BUCSZBGRXQNNMQ-UHFFFAOYSA-N,CCOC1=CC=C(N[S](=O)(=O)C2=CC=C(C=C2)[N+]([O-])=O)C=C1,-4.72
C-958,pentoxazone,JZPKLLLUDLHCEL-UHFFFAOYSA-N,CC(C)=C1OC(=O)N(C1=O)C2=C(F)C=C(Cl)C(=C2)OC3CCCC3,-6.21
C-959,3-(propanoyloxymethyl)phenytoin,FBQTWGHLMQUOQL-UHFFFAOYSA-N,CCC(=O)OCN1C(=O)NC(C1=O)(C2=CC=CC=C2)C3=CC=CC=C3,-4.91
C-961,"2,2',3,4,5,5',6-heptachlorobiphenyl",PYZHTHZEHQHHEN-UHFFFAOYSA-N,ClC1=CC=C(Cl)C(=C1)C2=C(Cl)C(=C(Cl)C(=C2Cl)Cl)Cl,-8.46
C-962,n1-(2-nitrophenyl)-2-methylsulfanilamide;  2-nitro-1-(4-amino-2-methylphenylsulfonamido)benzene,HZKCDBKRNMDOJB-UHFFFAOYSA-N,CC1=C(C=CC(=C1)N)[S](=O)(=O)NC2=C(C=CC=C2)[N+]([O-])=O,-4.51
C-964,"7,12-dimethylbenz[a]anthracene",ARSRBNBHOADGJU-UHFFFAOYSA-N,CC1=C2C=CC3=C(C=CC=C3)C2=C(C)C4=C1C=CC=C4,-6.78
C-966,"szi-121;  3-(2-chlorophenyl)-6-(2,6-difluorophenyl)-1,2,4,5-tetrazine",SWBHWUYHHJCADA-UHFFFAOYSA-N,FC1=C(C(=CC=C1)F)C2=NN=C(N=N2)C3=C(Cl)C=CC=C3,-6.12
C-968,cinnarizine;  stugeron,DERZBLKQOCDDDZ-JLHYYAGUSA-N,C1CN(CCN1C\C=C\C2=CC=CC=C2)C(C3=CC=CC=C3)C4=CC=CC=C4,-4.2
C-969,"n-(3-methyl-5-propylisoxazol-4-yl)-2-hydroxy-1,4-naphthoquinone-4-imine",JSAKUYFJPZQXBF-UHFFFAOYSA-N,CCCC1=C(N=C2C=C(O)C(=O)C3=C2C=CC=C3)C(=NO1)C,-3.7
C-971,"n1-(2,4,5-trichlorophenyl)sulfanilamide;  1-sulfa-2,4,5-trichlorobenzene",NAEQJWFRAJVALC-UHFFFAOYSA-N,NC1=CC=C(C=C1)[S](=O)(=O)NC2=C(Cl)C=C(Cl)C(=C2)Cl,-4.83
C-973,"n-(2,4-dibromophenyl)benzenesulfonamide",KVYZUAZCQPQRPI-UHFFFAOYSA-N,BrC1=CC=C(N[S](=O)(=O)C2=CC=CC=C2)C(=C1)Br,-5.01
C-976,chlorothiazide,JBMKAUGHUNFTOL-UHFFFAOYSA-N,N[S](=O)(=O)C1=CC2=C(C=C1Cl)N=CN[S]2(=O)=O,-2.92
C-978,chlorprothixene (form ii),WSPOMRSOLSGNFJ-AUWJEWJLSA-N,CN(C)CC\C=C/1C2=C(SC3=C1C=C(Cl)C=C3)C=CC=C2,-5.87
C-979,"6-hydroxy-6,7-dihydro-5h-2-sulfamoylthieno[3,2-b]thiopyran-4,4-dioxide",ZGRYQDHDZGJMNF-UHFFFAOYSA-N,N[S](=O)(=O)C1=CC2=C(CC(O)C[S]2(=O)=O)S1,-1.59
C-980,"3-pentanoyloxymethylphenytoin;  5,5-diphenyl-3-pentanoyloxymethylhydantoin",XCEYNQCFXXAOBL-UHFFFAOYSA-N,CCCCC(=O)OCN1C(=O)NC(C1=O)(C2=CC=CC=C2)C3=CC=CC=C3,-4.68
C-981,"5-hydroxy-5,6-dihydro-4h-2-sulfamoylthieno[2,3-b]thiopyran-7,7-dioxide",APTGDJCKNMNFID-UHFFFAOYSA-N,N[S](=O)(=O)C1=CC2=C(S1)[S](=O)(=O)CC(O)C2,-1.54
C-982,"5,6-dihydro-2-sulfamoylthieno[3,2-b]thiopyran-4,4-dioxide-7-one",HYVMOJOTZLNZPF-UHFFFAOYSA-N,N[S](=O)(=O)C1=CC2=C(S1)C(=O)CC[S]2(=O)=O,-3.67
C-983,"7-hydroxy-6,7-dihydro-5h-2-sulfamoylthieno[3,2-b]thiopyran-4,4-dioxide",LNVGTRNKWNAINT-UHFFFAOYSA-N,N[S](=O)(=O)C1=CC2=C(S1)C(O)CC[S]2(=O)=O,-1.28
C-984,n-propylthalidomide,LYIKHGOXEXNKEV-UHFFFAOYSA-N,CCCN1C(=O)CCC(N2C(=O)C3=C(C=CC=C3)C2=O)C1=O,-3.72
C-985,"5,6-dihydro-2-sulfamoylthieno[2,3-b]thiopyran-7,7-dioxide-4-one",BGNCCUHEGHNNAP-UHFFFAOYSA-N,N[S](=O)(=O)C1=CC2=C(S1)[S](=O)(=O)CCC2=O,-3.02
C-987,warfarin (hemiketal-isomer),LSCYDZJASSKSMJ-UHFFFAOYSA-N,CC1(O)CC(C2=CC=CC=C2)C3=C(O1)C4=C(OC3=O)C=CC=C4,-4.74
C-989,cephalothin,XIURVHNZVLADCM-UHFFFAOYSA-N,CC(=O)OCC1=C(N2C(SC1)C(NC(=O)CC3=CC=CS3)C2=O)C(O)=O,-2.94
C-991,Erythromycin stearate,ULGZDMOVFRHVEP-UHFFFAOYSA-N,CCC1OC(=O)C(C)C(OC2CC(C)(OC)C(O)C(C)O2)C(C)C(OC3OC(C)CC(C3O)N(C)C)C(C)(O)CC(C)C(=O)C(C)C(O)C1(C)O,-1.27
C-992,"2,2',3,3',4,4',5,5'-octachlorobiphenyl",DTMRKGRREZAYAP-UHFFFAOYSA-N,ClC1=CC(=C(Cl)C(=C1Cl)Cl)C2=CC(=C(Cl)C(=C2Cl)Cl)Cl,-9.16
C-994,2-hydroxy-4-(3-methyl-5-pentylisoxazol-4-ylimino)-4h-naphthalen-1-one,UVDMLIMKZIIZSL-UHFFFAOYSA-N,CCCCCC1=C(N=C2C=C(O)C(=O)C3=C2C=CC=C3)C(=NO1)C,-3.18
C-995,benzoximate,BZMIHNKNQJJVRO-JZJYNLBNSA-N,CCO/N=C(OC(=O)C1=CC=CC=C1)/C2=C(OC)C(=CC=C2OC)Cl,-4.08
C-996,ofloxacin,GSDSWSVVBLHKDQ-UHFFFAOYSA-N,CC1COC2=C(N3CCN(C)CC3)C(=CC4=C2N1C=C(C(O)=O)C4=O)F,-1.27
C-997,terazosin,VCKUSRYTPJJLNI-UHFFFAOYSA-N,COC1=CC2=C(C=C1OC)C(=NC(=N2)N3CCN(CC3)C(=O)C4CCCO4)N,-1.8
C-998,"azo dye n2;  5-(4-chloro-2-nitrophenylazo)-1-ethyl-6-hydroxy-4-methyl-2-oxo-1,2-dihydropyridine-3-carbonitrile",BBVOMHRLNCRXRH-UHFFFAOYSA-N,CCN1C(=C(N=NC2=C(C=C(Cl)C=C2)[N+]([O-])=O)C(=C(C#N)C1=O)C)O,-6.69
C-999,methotrimeprazine;  levomepromazine,VRQVVMDWGGWHTJ-UHFFFAOYSA-N,COC1=CC2=C(SC3=C(C=CC=C3)N2CC(C)CN(C)C)C=C1,-4.37
C-1000,"2,2',3,3',5,5',6,6'-octachlorobiphenyl",JPOPEORRMSDUIP-UHFFFAOYSA-N,ClC1=C(Cl)C(=C(Cl)C(=C1)Cl)C2=C(Cl)C(=CC(=C2Cl)Cl)Cl,-9.38
C-1001,clarithromycin,AGOYDEPGAOXOCK-UHFFFAOYSA-N,CCC1OC(=O)C(C)C(OC2CC(C)(OC)C(O)C(C)O2)C(C)C(OC3OC(C)CC(C3O)N(C)C)C(C)(CC(C)C(=O)C(C)C(O)C1(C)O)OC,-2.2
C-1002,xipamide,MTZBBNMLMNBNJL-UHFFFAOYSA-N,CC1=C(NC(=O)C2=CC(=C(Cl)C=C2O)[S](N)(=O)=O)C(=CC=C1)C,-3.9
C-1003,n-(4-acetamidopyridin-3-yl)-4-nitrobenzenesulfonamide; 4-acetylamino-3-(4-nitrophenylsulfonamido)pyridine,WFPVQUWLMGSJJX-UHFFFAOYSA-N,CC(=O)NC1=C(N[S](=O)(=O)C2=CC=C(C=C2)[N+]([O-])=O)C=NC=C1,-3.39
C-1005,n-pentyl-thalidomide,ZSOMRRRVYGRIMH-UHFFFAOYSA-N,CCCCCN1C(=O)CCC(N2C(=O)C3=C(C=CC=C3)C2=O)C1=O,-4.7
C-1006,o-isonicotinoylzidovudine,OYFFXILVYKNQTK-UHFFFAOYSA-N,CC1=CN(C2CC(N=[N+]=[N-])C(COC(=O)C3=CC=NC=C3)O2)C(=O)NC1=O,-2.72
C-1009,colchicine,IAKHMKGGTNLKSZ-UHFFFAOYSA-N,COC1=CC=C2C(=CC1=O)C(CCC3=C2C(=C(OC)C(=C3)OC)OC)NC(C)=O,-0.94
C-1012,alprazolam;  xanax,VREFGVBLTWBCJP-UHFFFAOYSA-N,CC1=NN=C2CN=C(C3=CC=CC=C3)C4=C(C=CC(=C4)Cl)[N]12,-3.6
C-1013,perylene,CSHWQDPOILHKBI-UHFFFAOYSA-N,C1=CC2=C3C(=C1)C=CC=C3C4=CC=CC5=CC=CC2=C45,-8.7
C-1014,benzo[e]pyrene,TXVHTIQJNYSSKO-UHFFFAOYSA-N,C1=CC2=C3C=CC=C4C=CC5=CC=CC(=C2C=C1)C5=C34,-7.66
C-1016,trimazosin,YNZXWQJZEDLQEG-UHFFFAOYSA-N,COC1=CC2=C(N)N=C(N=C2C(=C1OC)OC)N3CCN(CC3)C(=O)OCC(C)(C)O,-3.64
C-1018,acronine;  acromycine;  acronycine,SMPZPKRDRQOOHT-UHFFFAOYSA-N,COC1=C2C(=O)C3=C(C=CC=C3)N(C)C2=C4C=CC(C)(C)OC4=C1,-5.21
C-1021,"2,2',3,3',4,4',5,5',6-nonachlorobiphenyl",JFIMDKGRGPNPRQ-UHFFFAOYSA-N,ClC1=C(Cl)C(=C(Cl)C(=C1)C2=C(Cl)C(=C(Cl)C(=C2Cl)Cl)Cl)Cl,-9.62
C-1023,triphenyl phosphate;  tpp,XZZNDPSIHUTMOC-UHFFFAOYSA-N,O=[P](OC1=CC=CC=C1)(OC2=CC=CC=C2)OC3=CC=CC=C3,-5.66
C-1027,thioridazine,KLBQZWRITKRQQV-UHFFFAOYSA-N,CSC1=CC2=C(SC3=C(C=CC=C3)N2CCC4CCCCN4C)C=C1,-5.82
C-1035,fenthiaprop-ethyl,HVCNNTAUBZIYCG-UHFFFAOYSA-N,CCOC(=O)C(C)OC1=CC=C(OC2=NC3=C(S2)C=C(Cl)C=C3)C=C1,-5.67
C-1037,triazolam,JOFWLTCLBGQGBO-UHFFFAOYSA-N,CC1=NN=C2CN=C(C3=CC=CC=C3Cl)C4=C(C=CC(=C4)Cl)[N]12,-4.08
C-1038,rotenone,JUVIOZPCNVVQFO-UHFFFAOYSA-N,COC1=CC2=C(C=C1OC)C3C(CO2)OC4=C(C=CC5=C4CC(O5)C(C)=C)C3=O,-4.47
C-1040,methyclothiazide,CESYKOGBSMNBPD-UHFFFAOYSA-N,CN1C(CCl)NC2=C(C=C(C(=C2)Cl)[S](N)(=O)=O)[S]1(=O)=O,-3.78
C-1041,quizalofop-p-tefuryl,JZCPOTMKOXYURK-UHFFFAOYSA-N,CC(OC1=CC=C(OC2=NC3=C(C=C(Cl)C=C3)N=C2)C=C1)C(=O)OC4CCCO4,-5.02
C-1045,trichlormethiazide with crystal form i,LMJSLTNSBFUCMU-UHFFFAOYSA-N,N[S](=O)(=O)C1=C(Cl)C=C2NC(N[S](=O)(=O)C2=C1)C(Cl)Cl,-3.18
C-1048,chlorimuron-ethyl,NSWAMPCUPHPTTC-UHFFFAOYSA-N,CCOC(=O)C1=CC=CC=C1[S](=O)(=O)NC(=O)NC2=NC(=CC(=N2)OC)Cl,-4.58
C-1050,piroxicam,QYSPLQLAKJAUJT-UHFFFAOYSA-N,CN1C(=C(O)C2=C(C=CC=C2)[S]1(=O)=O)C(=O)NC3=CC=CC=N3,-4.5
C-1051,celecoxib,RZEKVGVHFLEQIL-UHFFFAOYSA-N,CC1=CC=C(C=C1)C2=CC(=N[N]2C3=CC=C(C=C3)[S](N)(=O)=O)C(F)(F)F,-4.74
C-1052,oxytetracycline; terramycin,IWVCMVBTMGNXQD-UHFFFAOYSA-N,CN(C)C1C2C(O)C3C(=C(O)C2(O)C(=O)C(=C1O)C(N)=O)C(=O)C4=C(C=CC=C4O)C3(C)O,-3.15
C-1054,dicumarol;  dicoumarol,DOBMPNYZJYQDGZ-UHFFFAOYSA-N,OC1=C(CC2=C(O)C3=CC=CC=C3OC2=O)C(=O)OC4=C1C=CC=C4,-4.27
C-1060,meloxicam,ZRVUJXDFFKFLMG-UHFFFAOYSA-N,CN1C(=C(O)C2=CC=CC=C2[S]1(=O)=O)C(=O)NC3=NC=C(C)S3,-1.92
C-1062,probucol,HMMITNDFMJJHJS-UHFFFAOYSA-N,CC(C)(C)C1=CC(=CC(=C1SC(C)(C)SC2=C(C=C(O)C=C2C(C)(C)C)C(C)(C)C)C(C)(C)C)O,-8.17
C-1063,moricizine,FUBVWMNBEHXPSU-UHFFFAOYSA-N,CCOC(=O)NC1=CC2=C(SC3=C(C=CC=C3)N2C(=O)CCN4CCOCC4)C=C1,-3.9
C-1065,flufenoxuron;  cascade,RYLHNOVXKPXDIP-UHFFFAOYSA-N,FC1=C(NC(=O)NC(=O)C2=C(F)C=CC=C2F)C=CC(=C1)OC3=CC=C(C=C3Cl)C(F)(F)F,-8.09
C-1066,flupyrsulfuron-methyl,DTVOKYWXACGVGO-UHFFFAOYSA-N,COC(=O)C1=CC=C(N=C1[S](=O)(=O)NC(=O)NC2=NC(=CC(=N2)OC)OC)C(F)(F)F,-3.89
C-1067,methotrexate,FBOZXECLQNJBKD-UHFFFAOYSA-N,CN(CC1=NC2=C(N=C1)N=C(N)N=C2N)C3=CC=C(C=C3)C(=O)NC(CCC(O)=O)C(O)=O,-4
C-1069,coronene,VPUGDVKSAQVFFS-UHFFFAOYSA-N,C1=CC2=C3C4=C1C=CC5=C4C6=C(C=C5)C=CC7=C6C3=C(C=C2)C=C7,-8.83
C-1070,"N-[2-[(2-Bromo-4,6-dinitrophenyl)azo]-5-[(2-cyanoethyl)-2-propenylamino]-4-methoxyphenyl]acetamide",WUAQCCUTLFMZFP-UHFFFAOYSA-N,COC1=C(C=C(NC(C)=O)C(=C1)N=NC2=C(Br)C=C(C=C2[N+]([O-])=O)[N+]([O-])=O)N(CCC#N)CC=C,-8.9
C-1071,etoposide,VJJPUSNTGOMMGY-UHFFFAOYSA-N,COC1=CC(=CC(=C1O)OC)C2C3C(COC3=O)C(OC4OC5COC(C)OC5C(O)C4O)C6=C2C=C7OCOC7=C6,-3.47
C-1073,Cyclosporine,PMATZTZNYRCHOR-IMVLJIQESA-N,CCC1NC(=O)C(C(O)C(C)C\C=C\C)N(C)C(=O)C(C(C)C)N(C)C(=O)C(CC(C)C)N(C)C(=O)C(CC(C)C)N(C)C(=O)C(C)NC(=O)C(C)NC(=O)C(CC(C)C)N(C)C(=O)C(NC(=O)C(CC(C)C)N(C)C(=O)CN(C)C1=O)C(C)C,-4.64
C-1074,malononitrile;  dicyanomethane,CUONGYYJJVDODC-UHFFFAOYSA-N,N#CCC#N,0.25
C-1083,methylsulfonylmethane; dimethylsulfone,HHVIBTZHLRERCL-UHFFFAOYSA-N,C[S](C)(=O)=O,0.2
C-1093,4-fluorophenol,RHMPLDJJXGPMEX-UHFFFAOYSA-N,OC1=CC=C(F)C=C1,-0.21
C-1094,retinol (all-trans);  vitamin a; vitamin a1,FPIPGXGPPPQFEQ-OVSJKPMPSA-N,CC(=C\CO)/C=C/C=C(C)/C=C/C1=C(C)CCCC1(C)C,-3.81
C-1096,"1,4-benzoquinone;  quinone",AZQWKYJCGOJGHM-UHFFFAOYSA-N,O=C1C=CC(=O)C=C1,-0.89
C-1102,carbromal;  adalin,OPNPQXLQERQBBV-UHFFFAOYSA-N,CCC(Br)(CC)C(=O)NC(N)=O,-2.68
C-1103,3-chlorophenol,HORNXRXVQWOLPJ-UHFFFAOYSA-N,OC1=CC(=CC=C1)Cl,-0.71
C-1105,"methyl  2,2-diethylmalonurate",XHBHEPKDMPOVAT-UHFFFAOYSA-N,CCC(CC)(C(=O)NC(N)=O)C(=O)OC,-1.96
C-1108,"ethyl  2,2-diethylmalonurate",KIOURYUVFMVQEI-UHFFFAOYSA-N,CCOC(=O)C(CC)(CC)C(=O)NC(N)=O,-2.08
C-1110,"endothall; 7-oxabicyclo[2.2.1]heptan-2,3-dicarboxylic  acid",GXEKYRXVRROBEV-UHFFFAOYSA-N,OC(=O)C1C2CCC(O2)C1C(O)=O,-0.27
C-1112,4-ethoxyphenol,LKVFCSWBKOVHAH-UHFFFAOYSA-N,CCOC1=CC=C(O)C=C1,-1.29
C-1113,2-methyl-4(5)-nitroimidazole,FFYTTYVSDVWNMY-UHFFFAOYSA-N,CC1=NC=C([NH]1)[N+]([O-])=O,-1.63
C-1114,"isopropyl  2,2-diethylmalonurate",DGTCYQZOIKAZMK-UHFFFAOYSA-N,CCC(CC)(C(=O)NC(N)=O)C(=O)OC(C)C,-2.77
C-1116,"methoxymethyl  2,2-diethylmalonurate",UQAMZYUCRWJDDJ-UHFFFAOYSA-N,CCC(CC)(C(=O)NC(N)=O)C(=O)OCOC,-2.17
C-1117,thiobenzamide,QIOZLISABUUKJY-UHFFFAOYSA-N,NC(=S)C1=CC=CC=C1,-1.92
C-1119,lomustine,GQYIWUVLTXOXAJ-UHFFFAOYSA-N,ClCCN(N=O)C(=O)NC1CCCCC1,-3.37
C-1124,"methyl  2,2-diallylmalonurate",KXJAQUIZSZBSID-UHFFFAOYSA-N,COC(=O)C(CC=C)(CC=C)C(=O)NC(N)=O,-2.17
C-1129,"4-chloro-3,5-dimethylphenol;  4-chloro-3,5-xylenol",OSDLLIBGSJNGJE-UHFFFAOYSA-N,CC1=C(Cl)C(=CC(=C1)O)C,-2.67
C-1130,n-(hydroxymethyl)benzamide,UOUBPDZUBVJZOQ-UHFFFAOYSA-N,OCNC(=O)C1=CC=CC=C1,-0.52
C-1133,"dimetridazole;  1,2-dimethyl-5-nitroimidazole",IBXPYPUJPLLOIN-UHFFFAOYSA-N,C[N]1C(=NC=C1[N+]([O-])=O)C,-1.16
C-1134,4-ethylbenzoic  acid,ZQVKTHRQIXSMGY-UHFFFAOYSA-N,CCC1=CC=C(C=C1)C(O)=O,-2.52
C-1136,2-isopropyl-4(5)-nitroimidazole,SQZCZXRYOJJCDU-UHFFFAOYSA-N,CC(C)C1=NC(=C[NH]1)[N+]([O-])=O,-1.15
C-1137,4-methoxybenzamide,GUCPYIYFQVTFSI-UHFFFAOYSA-N,COC1=CC=C(C=C1)C(N)=O,-1.72
C-1139,3-methoxybenzamide,VKPLPDIMEREJJF-UHFFFAOYSA-N,COC1=CC=CC(=C1)C(N)=O,-1.72
C-1144,"1,3-bis(pivaloyloxymethyl)-5-fluorouracil",WCEZGNZVJAKFRE-UHFFFAOYSA-N,CC(C)(C)C(=O)OCN1C=C(F)C(=O)N(COC(=O)C(C)(C)C)C1=O,-3.9
C-1146,n-(dimethylaminomethyl)benzamide,VEROGXNNWXHGRF-UHFFFAOYSA-N,CN(C)CNC(=O)C1=CC=CC=C1,0.42
C-1148,4-iodophenol,VSMDINRNYYEDRN-UHFFFAOYSA-N,OC1=CC=C(I)C=C1,-1.71
C-1155,4-butylbenzoic acid,JFKUBRAOUZEZSL-UHFFFAOYSA-N,CCCCC1=CC=C(C=C1)C(O)=O,-3.08
C-1156,"1,3-bis(acetoxymethyl)-5-fluorouracil",CCBUAQOJPDCNAJ-UHFFFAOYSA-N,CC(=O)OCN1C=C(F)C(=O)N(COC(C)=O)C1=O,-1.81
C-1157,"ethyl  2-cyclohexen-1-yl-2,6-dimethylmalonurate",MJFORILECQXJAU-UHFFFAOYSA-N,CCOC(=O)C(C)(C(=O)NC(=O)NC)C1=CCCCC1,-3
C-1159,ipronidazole,NTAFJUSDNOSFFY-UHFFFAOYSA-N,CC(C)C1=NC=C([N]1C)[N+]([O-])=O,-1.26
C-1160,"xylylcarb;  3,4-xylyl methylcarbamate;  3,4-dimethylphenyl methylcarbamate",WCJYTPVNMWIZCG-UHFFFAOYSA-N,CNC(=O)OC1=CC(=C(C)C=C1)C,-2.49
C-1163,secnidazole,KPQZUUQMTUIKBP-UHFFFAOYSA-N,CC(O)C[N]1C(=NC=C1[N+]([O-])=O)C,-0.74
C-1174,3-methylisoquinoline,FVVXWRGARUACNW-UHFFFAOYSA-N,CC1=CC2=C(C=CC=C2)C=N1,-2.19
C-1179,fenobucarb,DIRFUJHNVNOBMY-UHFFFAOYSA-N,CCC(C)C1=C(OC(=O)NC)C=CC=C1,-2.53
C-1183,"methoxycarbonylmethyl  2,2-diethylmalonurate",BZOKLJVQXZIUTK-UHFFFAOYSA-N,CCC(CC)(C(=O)NC(N)=O)C(=O)OCC(=O)OC,-2.01