ID,Name,InChIKey,SMILES,Solubility
B-2329,pretilchlor,YLPGTOIOYRQOHV-UHFFFAOYSA-N,CCCOCCN(C(=O)CCl)c1c(CC)cccc1CC,-3.795
B-2331,nitrogen,IJGRMHOSHXDMSA-UHFFFAOYSA-N,N#N,-0.1901
B-2332,copper sulfate pentahydrate,JZCCFEFSEZPSOG-UHFFFAOYSA-L,O.O.O.O.O.[Cu++].[O-][S]([O-])(=O)=O,-0.8922
B-2333,arsenic acid,DJHGAFSJWGLOIV-UHFFFAOYSA-N,O[As](O)(O)=O,0.6187
B-2334,oxygen,MYMOFIZGZYHOMD-UHFFFAOYSA-N,O=O,0.0691
B-2335,chlorine,KZBUYRJDOAKODT-UHFFFAOYSA-N,ClCl,-1.0513
B-2337,mevinphos,GEPDYQSQVLXLEU-AATRIKPKSA-N,COC(=O)\C=C(/C)O[P](=O)(OC)OC,0.4276
B-2338,"1,1,1-trichloropropane",AVGQTJUPLKNPQP-UHFFFAOYSA-N,CCC(Cl)(Cl)Cl,-1.8898
B-2340,demeton,FAXIJTUDSBIMHY-UHFFFAOYSA-N,CCO[P](=O)(OCC)SCCSCC.CCO[P](=S)(OCC)OCCSCC,-3.9351
B-2341,bufencarb,MYTVVMGUDBRCDJ-UHFFFAOYSA-N,CCCC(C)c1cccc(OC(=O)NC)c1.CCC(CC)c2cccc(OC(=O)NC)c2,-3.947
B-2342,"ethanol, 2-(octyloxy)-",ZQCIMPBZCZUDJM-UHFFFAOYSA-N,CCCCCCCCOCCO,-2.125
B-2343,"butanenitrile, 2-hydroxy-3-methyl-, (r)-",YRBPUNHOIVAUFA-YFKPBYRVSA-N,CC(C)[C@@H](O)C#N,0.3048
B-2344,"1-butanol, 2-ethyl-, acetate",HQLKZWRSOHTERR-UHFFFAOYSA-N,CCC(CC)COC(C)=O,-1.3528
B-2346,"1,3-dichloropropene (trans)",UOORRWUZONOOLO-OWOJBTEDSA-N,ClC/C=C/Cl,-1.598
B-2347,"1,1-cyclopropanedicarboxylic acid, 2-methyl-",SPAYAPLBTKGPME-UHFFFAOYSA-N,CC1CC1(C(O)=O)C(O)=O,0.8412
B-2348,"butanedioic acid, 2,2-diphenyl-",LVVXLDUCGFTWHJ-UHFFFAOYSA-N,OC(=O)CC(C(O)=O)(c1ccccc1)c2ccccc2,-2.4318
B-2349,"2,2-dibromo-2-cyanoacetamide",UUIVKBHZENILKB-UHFFFAOYSA-N,NC(=O)C(Br)(Br)C#N,-1.2075
B-2350,glyburide,ZNNLBTZKUZBEKO-UHFFFAOYSA-N,COc1ccc(Cl)cc1C(=O)NCCc2ccc(cc2)[S](=O)(=O)NC(=O)NC3CCCCC3,-5.0917
B-2351,methamidophos,NNKVPIKMPCQWCG-UHFFFAOYSA-N,CO[P](N)(=O)SC,0.8504
B-2353,n-isobutylmorpholine,QKVSMSABRNCNRS-UHFFFAOYSA-N,CC(C)CN1CCOCC1,-0.7089
B-2354,"l-tyrosine, n-acetyl-3,5-dibromo-",FNGNLZLLBCYMOG-VIFPVBQESA-N,CC(=O)N[C@@H](Cc1cc(Br)c(O)c(Br)c1)C(O)=O,-2.183
B-2355,6-quinolinecarboxylic acid,VXGYRCVTBHVXMZ-UHFFFAOYSA-N,OC(=O)c1ccc2ncccc2c1,-0.0456
B-2356,"3-pyridinecarboxamide, n-cyclohexyl-",VQRIASKDLZXYTO-UHFFFAOYSA-N,O=C(NC1CCCCC1)c2cccnc2,-2.319
B-2357,3-hydroxycamphor,AXMKZEOEXSKFJI-UHFFFAOYSA-N,CC1(C)C2CCC1(C)C(=O)C2O,-0.9249
B-2358,"benzenamine, 2-bromo-5-nitro-",BAAUCXCLMDAZEL-UHFFFAOYSA-N,Nc1cc(ccc1Br)[N+]([O-])=O,-3.5583
B-2359,"3-octyloxy-propane-1,2-diol",GUPXYSSGJWIURR-UHFFFAOYSA-N,CCCCCCCCOCC(O)CO,-1.9208
B-2360,mcpb-ethyl,XNKARWLGLZGMGX-UHFFFAOYSA-N,CCOC(=O)CCCOc1ccc(Cl)cc1C,-4.4095
B-2362,bromperidol,RKLNONIVDFXQRX-UHFFFAOYSA-N,OC1(CCN(CCCC(=O)c2ccc(F)cc2)CC1)c3ccc(Br)cc3,-3.6693
B-2363,"phenol, 2,3,4,6-tetrachloro-5-methyl-",ZGWPUIZMCCUZOK-UHFFFAOYSA-N,Cc1c(Cl)c(O)c(Cl)c(Cl)c1Cl,-4.6021
B-2364,"phosphoric acid, ethyl dimethyl ester",JQVXMIPNQMYRPE-UHFFFAOYSA-N,CCO[P](=O)(OC)OC,0.5112
B-2365,terbufos sulfoxide,KKOYBOFPUBHPFO-UHFFFAOYSA-N,CCO[P](=S)(OCC)SC[S](=O)C(C)(C)C,-2.4421
B-2366,nitrothal-isopropyl,VJAWBEFMCIINFU-UHFFFAOYSA-N,CC(C)OC(=O)c1cc(cc(c1)[N+]([O-])=O)C(=O)OC(C)C,-5.0389
B-2368,azadirachtin,FTNJWQUOZFUQQJ-NDAWSKJSSA-N,COC(=O)[C@@]1(O)OC[C@@]23[C@H](C[C@@H](OC(C)=O)[C@]4(CO[C@@H]([C@@H](O)[C@](C)([C@H]12)[C@]56O[C@@]5(C)[C@H]7C[C@@H]6O[C@@H]8OC=C[C@]78O)[C@H]34)C(=O)OC)OC(=O)C(/C)=C/C,-3.4428
B-2369,ethephon,UDPGUMQDCGORJQ-UHFFFAOYSA-N,O[P](O)(=O)CCCl,0.8401
B-2370,methylcyclopentadienyl manganese,IYSGJCJSRBFZSZ-UHFFFAOYSA-N,[Mn].C[c-]1cccc1.[C-]#[O+].[C-]#[O+].[C-]#[O+],-3.8762
B-2371,disperse blue 79,KOAZOWWCVCWYMN-UHFFFAOYSA-N,CCOc1cc(N=Nc2cc(cc(c2Br)[N+]([O-])=O)[N+]([O-])=O)c(NC(C)=O)cc1N(CCOC(C)=O)CCOC(C)=O,-8.8336
B-2372,landrin,NYOKZHDTNBDPOB-UHFFFAOYSA-N,CNC(=O)Oc1cc(C)cc(C)c1C,-1.9851
B-2373,propagermanium,XEABSBMNTNXEJM-UHFFFAOYSA-N,OC(=O)CC[Ge](=O)O[Ge](=O)CCC(O)=O,-1.4932
B-2374,ancymidol,HUTDUHSNJYTCAR-UHFFFAOYSA-N,COc1ccc(cc1)C(O)(C2CC2)c3cncnc3,-2.5959
B-2375,"o1,o3-diisopropyl-glycerol",AJJGRBMYVRSEES-UHFFFAOYSA-N,CC(C)OCC(O)COC(C)C,0.0549
B-2376,"benzoic acid, 5-acetyl-2-hydroxy-",NZRDKNBIPVLNHA-UHFFFAOYSA-M,CC(=O)c1ccc(O)c(c1)C([O-])=O,-2.2304
B-2377,"propane, 1,2,2,3-tetrachloro-",UDPHJTAYHSSOQB-UHFFFAOYSA-N,ClCC(Cl)(Cl)CCl,-2.5785
B-2378,periplocin,JVFYCULORCKYMD-WSSBEIOBSA-N,COC1[C@H](O)C(CO[C@@H]2C(O)C[C@@H](O)OC2C)O[C@@H](O[C@H]3CC[C@]4(C)C5CC[C@]6(C)[C@H](CC[C@]6(O)C5CC[C@]4(O)C3)C7=CC(=O)OC7)C1O,-1.94
B-2379,"1,4-benzenedicarboxamide, n,n,n',n'-tetramethyl-",MKIKJJUYURBXJT-UHFFFAOYSA-N,CN(C)C(=O)c1ccc(cc1)C(=O)N(C)C,0.2656
B-2380,"3-pyridinecarboxamide, n-2-pyridinyl-",QZNPXKRALPFXPR-UHFFFAOYSA-N,O=C(Nc1ccccn1)c2cccnc2,-2.9771
B-2381,phosphamidon,RGCLLPNLLBQHPF-HJWRWDBZSA-N,CCN(CC)C(=O)\C(Cl)=C(/C)O[P](=O)(OC)OC,0.5233
B-2382,bromofenoxim,VTQWKUZUPOTXEH-UHFFFAOYSA-N,[O-][N+](=O)c1ccc(ONC=C2C=C(Br)C(=O)C(=C2)Br)c(c1)[N+]([O-])=O,-6.6637
B-2383,"o-ethyl s,s-dipropyl phosphorodithioate",VJYFKVYYMZPMAB-UHFFFAOYSA-N,CCCS[P](=O)(OCC)SCCC,-2.5094
B-2384,"8h-purin-8-one, 1,7-dihydro-",YPDSIEMYVQERLJ-UHFFFAOYSA-N,O=C1Nc2cncnc2N1,-1.5141
B-2385,n-nitrososarcosine,HJMPSKKJHVWPBK-UHFFFAOYSA-N,CN(CC(O)=O)N=O,0.9278
B-2386,"imidodicarbonimidic diamide, n-1-naphthalenyl-",UUBZPMKBMHXGNE-UHFFFAOYSA-N,NC(=N)NC(=N)Nc1cccc2ccccc12,-2.3151
B-2387,kitazine,XFMJUIKWKVJNDY-UHFFFAOYSA-N,CCO[P](=O)(OCC)SCc1ccccc1,-2.4155
B-2388,procion blue mx-r,RTLULCVBFCRQKI-UHFFFAOYSA-N,Nc1c(cc(Nc2ccc(c(Nc3nc(Cl)nc(Cl)n3)c2)[S](O)(=O)=O)c4C(=O)c5ccccc5C(=O)c14)[S](O)(=O)=O,0.1956
B-2390,"1-butanamine, n-ethyl-",QHCCDDQKNUYGNC-UHFFFAOYSA-N,CCCCNCC,-0.4405
B-2391,"2,4(1h,3h)-pteridinedione, 1,3-dimethyl-",LMXZVISHHDYBFW-UHFFFAOYSA-N,CN1C(=O)N(C)c2nccnc2C1=O,-1.4598
B-2392,"7-nitro-2,2-dimethyl-2,3-dihydrobenzofuran",ZQZNLPNVEXRNNG-UHFFFAOYSA-N,CC1(C)Cc2cccc(c2O1)[N+]([O-])=O,-3.2068
B-2394,"l-cysteine, n-acetyl-s-(3,4-dichlorophenyl)-",JYWAYDDGOPHFIS-JTQLQIEISA-N,CC(=O)N[C@@H](CSc1ccc(Cl)c(Cl)c1)C(O)=O,-2.8868
B-2395,pyrazophos,JOOMJVFZQRQWKR-UHFFFAOYSA-N,CCOC(=O)c1cn2nc(O[P](=S)(OCC)OCC)cc2nc1C,-4.9489
B-2396,"2(1h)-pyridinone, 5-iodo-",ZDJUNNCVIDKJAN-UHFFFAOYSA-N,IC1=CNC(=O)C=C1,-1.7423
B-2397,guazatine free base,RONFGUROBZGJKP-UHFFFAOYSA-N,NC(N)=NCCCCCCCCNCCCCCCCCN=C(N)N,0.3322
B-2398,2-diethylamino-4-ethylamino-6-methoxy-s-triazi*,MVILCVSEDHFDSS-UHFFFAOYSA-N,CCNc1nc(OC)nc(n1)N(CC)CC,-2.9987
B-2399,"propanoic acid, 2-hydroxy-, 2-butoxy-1-methyl-2-",QRCKUXOGGLKXGH-UHFFFAOYSA-N,CCCCOC(=O)C(C)OC(=O)C(C)O,-1.3752
B-2400,"urea, n,n''-methylenebis-",KQVLODRFGIKJHZ-UHFFFAOYSA-N,NC(=O)NCNC(N)=O,-0.6525
B-2401,1-amino-2-butanol,KODLUXHSIZOKTG-UHFFFAOYSA-N,CCC(O)CN,1.0499
B-2402,dechlorane plus,UGQQAJOWXNCOPY-UHFFFAOYSA-N,ClC1=C(Cl)C2(Cl)C3CCC4C(CCC3C1(Cl)C2(Cl)Cl)C5(Cl)C(=C(Cl)C4(Cl)C5(Cl)Cl)Cl,-13.1719
B-2403,quinalphos,JYQUHIFYBATCCY-UHFFFAOYSA-N,CCO[P](=S)(OCC)Oc1cnc2ccccc2n1,-4.1322
B-2404,isonicotinic acid n-oxide,QCWTWMJMLSKQCJ-UHFFFAOYSA-N,OC(=O)c1cc[n+]([O-])cc1,-1.102
B-2405,"piperidine, 3-propyl-,",CRZUKKNUMNKBFJ-UHFFFAOYSA-N,CCCC1CCCNC1,-1.011
B-2406,"2-propanol, 1-chloro-, phosphate (3:1)",KVMPUXDNESXNOH-UHFFFAOYSA-N,CC(CCl)O[P](=O)(OC(C)CCl)OC(C)CCl,-2.4361
B-2410,delmadinone acetate,CGBCCZZJVKUAMX-UHFFFAOYSA-N,CC(=O)OC1(CCC2C3C=C(Cl)C4=CC(=O)C=CC4(C)C3CCC12C)C(C)=O,-4.9453
B-2411,azidamfenicol,SGRUZFCHLOFYHZ-MWLCHTKSSA-N,OC[C@@H](NC(=O)CN=[N+]=[N-])[C@H](O)c1ccc(cc1)[N+]([O-])=O,-1.1692
B-2412,sec-butylamine,BHRZNVHARXXAHW-UHFFFAOYSA-N,CCC(C)N,0.1851
B-2413,4-bromo-trans-crotonic acid,DOTGZROJTAUYFQ-OWOJBTEDSA-N,OC(=O)\C=C\CBr,-0.7403
B-2414,metiazinic acid,LMINNBXUMGNKMM-UHFFFAOYSA-N,CN1c2ccccc2Sc3ccc(CC(O)=O)cc13,-3.9422
B-2415,"barbituric acid, 5,5-di-2-butenyl-",OJXLDQJJHBLYOT-GGWOSOGESA-N,C/C=C/CC1(C\C=C\C)C(=O)NC(=O)NC1=O,-2.1973
B-2416,"3-furancarboxylic acid, 2-methyl-5-(1,2,3,4-tetr",QCJQVLKXEYQMLF-VDAHYXPESA-M,Cc1oc(cc1C([O-])=O)[C@H](O)[C@H](O)[C@H](O)CO,-1.2774
B-2418,"4-pteridinamine, n,n-dimethyl-",KXQWQYBKUMVBIB-UHFFFAOYSA-N,CN(C)c1ncnc2nccnc12,-1.0216
B-2419,"propanoic acid, 3-ethoxy-, methyl ester",HSDFKDZBJMDHFF-UHFFFAOYSA-N,CCOCCC(=O)OC,-0.0719
B-2420,"propanoic acid, 3-ethoxy-, butyl ester",MVWVAXBILFBQIZ-UHFFFAOYSA-N,CCCCOC(=O)CCOCC,-1.6391
B-2421,"propionic acid, 3-ethoxy-, pentyl ester",LECMFIIQEQTPNP-UHFFFAOYSA-N,CCCCCOC(=O)CCOCC,-2.1956
B-2422,"propionic acid, 3-ethoxy-, hexyl ester",ZASWBHFDPXLANO-UHFFFAOYSA-N,CCCCCCOC(=O)CCOCC,-2.8289
B-2423,"propionic acid, 3-propoxy-, methyl ester",DMHHINXESLPPMV-UHFFFAOYSA-N,CCCOCCC(=O)OC,-0.6334
B-2424,"propanoic acid, 3-propoxy-, propyl ester",YTUFRRBSSNRYID-UHFFFAOYSA-N,CCCOCCC(=O)OCCC,-1.6848
B-2425,"propanoic acid, 3-butoxy-, butyl ester",BMOACRKLCOIODC-UHFFFAOYSA-N,CCCCOCCC(=O)OCCCC,-2.4029
B-2427,Dibenzo-18-crown-6,YSSSPARMOAYJTE-UHFFFAOYSA-N,C1COc2ccccc2OCCOCCOc3ccccc3OCCO1,-4.6935
B-2428,difenoxuron,AMVYOVYGIJXTQB-UHFFFAOYSA-N,COc1ccc(Oc2ccc(NC(=O)N(C)C)cc2)cc1,-4.1558
B-2429,fenazaflor,ISVQSVPUDBVFFU-UHFFFAOYSA-N,FC(F)(F)c1nc2cc(Cl)c(Cl)cc2n1C(=O)Oc3ccccc3,-4.4603
B-2431,Valylglycine,IOUPEELXVYPCPG-UHFFFAOYSA-N,CC(C)C(N)C(=O)NCC(O)=O,0.4579
B-2432,"1,3-benzenedicarboxamide, n,n,n',n'-tetramethyl-",SVWDHNLFFDIWHM-UHFFFAOYSA-N,CN(C)C(=O)c1cccc(c1)C(=O)N(C)C,0.487
B-2433,"butanoic acid, 4,4'-diselenobis-",WORSJCPMKUOXAD-UHFFFAOYSA-N,OC(=O)CCC[Se][Se]CCCC(O)=O,-2.2471
B-2434,ethyl 4-chlorophenoxyacetate,QULRDJFRGVHKLN-UHFFFAOYSA-N,CCOC(=O)COc1ccc(Cl)cc1,-2.4206
B-2435,chlorfenprop methyl,YJKIALIXRCSISK-UHFFFAOYSA-N,COC(=O)C(Cl)Cc1ccc(Cl)cc1,-3.7655
B-2436,3-(2-methylphenoxy)pyridazine,DNPSYFHJYIRREW-UHFFFAOYSA-N,Cc1ccccc1Oc2cccnn2,-1.969
B-2437,"1,2,4-triazolidine-3,5-dione, 4-methyl-1-phenyl-",XVVORNVNYKBZKT-UHFFFAOYSA-N,CN1C(=O)NN(C1=O)c2ccccc2,-2.9804
B-2438,"benzamide, 2-(2-propenyloxy)-",FZEIWORKISALCO-UHFFFAOYSA-N,NC(=O)c1ccccc1OCC=C,-2.2273
B-2441,"2,5-piperazinedione, 3-(1-methylethyl)-",IULFBTHVPRNQCG-UHFFFAOYSA-N,CC(C)C1NC(=O)CNC1=O,-0.8926
B-2443,"3-heptanol, 4-methyl- (van8ci9ci)",BKQICAFAUMRYLZ-UHFFFAOYSA-N,CCCC(C)C(O)CC,-1.9636
B-2444,"1,6-dioxaspiro[4,4]nonane, 2,2,7,7-tetramethyl-",NJYRFKSWBDHCQL-UHFFFAOYSA-N,CC1(C)CCC2(CCC(C)(C)O2)O1,-1.9644
B-2445,"phenol, 2,2'-sulfonylbis-",QUWAJPZDCZDTJS-UHFFFAOYSA-N,Oc1ccccc1[S](=O)(=O)c2ccccc2O,-3.3192
B-2446,"dl-phenylalanine, n-(2-cyanoethyl)-",RDEPSYXOVXRWGR-NSHDSACASA-N,[O-]C(=O)[C@H](Cc1ccccc1)[NH2+]CCC#N,-1.4939
B-2447,"1,1,2,3,3-pentachloropropane",PANVCEBTPSTUEL-UHFFFAOYSA-N,ClC(Cl)C(Cl)C(Cl)Cl,-2.7223
B-2448,"l-tyrosine, 3,5-dichloro-",MPHURJQUHZHALJ-UHFFFAOYSA-N,NC(Cc1cc(Cl)c(O)c(Cl)c1)C(O)=O,-1.7546
B-2449,"glutaric acid, 3-hydroxy-3-(phenylcarbamoyl)-",XIQLELWZTXRHIC-UHFFFAOYSA-N,OC(=O)CC(O)(CC(O)=O)C(=O)Nc1ccccc1,-0.4874
B-2450,"benzoic acid, 4-hydroxy-3-iodo-, methyl ester",PXNOLLHARLSLHY-UHFFFAOYSA-N,COC(=O)c1ccc(O)c(I)c1,-3.3138
B-2451,"benzoic acid, 4-hydroxy-3-iodo-, ethyl ester",HOAXKZYYZXASLJ-UHFFFAOYSA-N,CCOC(=O)c1ccc(O)c(I)c1,-3.4924
B-2452,"benzoic acid, 4-hydroxy-3-iodo-, propyl ester",GEFATVANQYOXLC-UHFFFAOYSA-N,CCCOC(=O)c1ccc(O)c(I)c1,-3.6865
B-2453,"benzoic acid, 4-hydroxy-3-iodo-, butyl ester",LDGUZTFKHIQDJC-UHFFFAOYSA-N,CCCCOC(=O)c1ccc(O)c(I)c1,-3.9033
B-2454,"propanoic acid, 2-(2,4-dichlorophenoxy)-, (r)-",MZHCENGPTKEIGP-RXMQYKEDSA-N,C[C@@H](Oc1ccc(Cl)cc1Cl)C(O)=O,-2.6003
B-2455,tranid,QCQPGRMMDFIQMB-WDAIPKEHSA-N,CNC(=O)O\N=C1/[C@@H](Cl)C2C[C@H](C#N)C1C2,-2.0822
B-2456,"n,n-diethyl-2-(1-naphthalenyloxy)propanamide",WXZVAROIGSFCFJ-UHFFFAOYSA-N,CCN(CC)C(=O)C(C)Oc1cccc2ccccc12,-3.5702
B-2458,"benzamide, 2-iodo-n-phenyl",LJOZMWRYMKECFF-UHFFFAOYSA-N,Ic1ccccc1C(=O)Nc2ccccc2,-4.2084
B-2459,"1,3-benzodioxole-5-methanol, 6-nitro-",LJXBRPHBDWIHPR-UHFFFAOYSA-N,OCc1c2OCOc2ccc1[N+]([O-])=O,-3.0643
B-2460,fluorodifen,HHMCAJWVGYGUEF-UHFFFAOYSA-N,[O-][N+](=O)c1ccc(Oc2ccc(cc2[N+]([O-])=O)C(F)(F)F)cc1,-5.2151
B-2461,noxythiolin,BBJPKBLYPSYKMT-UHFFFAOYSA-N,CN[S]#CNCO,-0.0798
B-2462,"propanenitrile, 2-(acetyloxy)-",BMJFWKRWVAQUPA-UHFFFAOYSA-N,CC(OC(C)=O)C#N,0.2475
B-2463,cis-platin,LXZZYRPGZAFOLE-UHFFFAOYSA-L,N.N.[Cl-].[Cl-].[Pt++],-2.0741
B-2465,"quinoxaline-1,4-dihydro-2,3-dione",ABJFBJGGLJVMAQ-UHFFFAOYSA-N,O=C1Nc2ccccc2NC1=O,-2.812
B-2466,"4,4-dimethyloctane",ZMEDGZAGMLTROM-UHFFFAOYSA-N,CCCCC(C)(C)CCC,-4.8108
B-2468,"acetic acid, 2,2'-tetrathiobis-",OMDZYSJJXJMDDF-UHFFFAOYSA-N,OC(=O)CSSSSCC(O)=O,-1.452
B-2469,"ethanol, 2-butoxy-, carbamate",QHHQZURUTXQADT-UHFFFAOYSA-N,CCCCOCCOC(N)=O,-0.5084
B-2470,pentachlorobenzyl alcohol,RVCKCEDKBVEEHL-UHFFFAOYSA-N,OCc1c(Cl)c(Cl)c(Cl)c(Cl)c1Cl,-5.1467
B-2472,chlorosuccinic acid,QEGKXSHUKXMDRW-UHFFFAOYSA-N,OC(=O)CC(Cl)C(O)=O,0.0767
B-2473,carbetamide,AMRQXHFXNZFDCH-VIFPVBQESA-N,CCNC(=O)[C@H](C)OC(=O)Nc1ccccc1,-1.8293
B-2474,"phosphonic acid, hexyl-, diethyl ester",VVUJWLDQIIFQHI-UHFFFAOYSA-N,CCCCCC[P](=O)(OCC)OCC,-2.5687
B-2475,"2-naphthol, 3-(2-imidazolin-2-yl)-",FLXNNWWFGVHTDN-UHFFFAOYSA-N,Oc1cc2ccccc2cc1C3=NCCN3,-3.3015
B-2476,"phenol, 2-iodo-4-methyl-",JITSLEIKSRKKCZ-UHFFFAOYSA-N,Cc1ccc(O)c(I)c1,-2.4662
B-2477,"2-propenoic acid, 3-[2-(acetyloxy)phenyl]-, (e)-",UXOWQQCLBQBRMQ-VOTSOKGWSA-N,CC(=O)Oc1ccccc1\C=C\C(O)=O,-3.1559
B-2479,"benzoic acid, 3-chloro-4-hydroxy-, ethyl ester",QBOWIPYEPOVPGR-UHFFFAOYSA-N,CCOC(=O)c1ccc(O)c(Cl)c1,-3.2232
B-2480,"l-glutamic acid, n-l-leucyl-",NFNVDJGXRFEYTK-YUMQZZPRSA-N,CC(C)C[C@H](N)C(=O)N[C@@H](CCC(O)=O)C(O)=O,-0.8969
B-2481,"butanamide, n-methyl-n-nitroso-",XPQQMTYSKBRMIY-UHFFFAOYSA-N,CCCC(=O)N(C)N=O,-1.5347
B-2482,mecoprop-p,WNTGYJSOUMFZEP-SSDOTTSWSA-N,C[C@@H](Oc1ccc(Cl)cc1C)C(O)=O,-2.3972
B-2483,"2-propenamide, 2-chloro-",YBXYCBGDIALKAK-UHFFFAOYSA-N,NC(=O)C(Cl)=C,-0.2104
B-2484,cyclopropyl vinyl ether,XRCVFFQSIMHODB-UHFFFAOYSA-N,C=COC1CC1,-1.1001
B-2485,"hydantoin, 5-methyl-5-(2-piperidinoethyl)-",PXXUBGGGONGQBX-UHFFFAOYSA-N,CC1(CCN2CCCCC2)NC(=O)NC1=O,-0.8213
B-2486,"-d-glucofuranose, 1,2:5,6-bis-o-(1-methylethyli",QZKDRLZSJSWQPS-RMPHRYRLSA-N,CC(=O)O[C@H]1[C@H](O[C@@H]2OC(C)(C)O[C@H]12)[C@H]3COC(C)(C)O3,-1.5229
B-2487,"2-thiazolecarboxylic acid, hydrazide",OPJYIWMGTSMLKB-UHFFFAOYSA-N,NNC(=O)c1sccn1,-0.6787
B-2488,methomyl,UHXUZOCRWCRNSJ-QPJJXVBHSA-N,CNC(=O)O\N=C(/C)SC,-0.4466
B-2489,"3,4,5-trichloroveratrole",VKNITLPENCJQOP-UHFFFAOYSA-N,COc1cc(Cl)c(Cl)c(Cl)c1OC,-4.3701
B-2490,4-chloroguaiacol,FVZQMMMRFNURSH-UHFFFAOYSA-N,COc1cc(Cl)ccc1O,-1.5013
B-2491,"benzenesulfonamide, 4-amino-n-1,3,4-thiadiazol-2",ATEAASNFYTUARU-UHFFFAOYSA-N,Nc1ccc(cc1)[S](=O)(=O)Nc2scnn2,-2.8684
B-2492,"2-furanacetic acid, tetrahydro-2-methyl-5-oxo-,",XPHDAEADNYTVAU-UHFFFAOYSA-N,CCOC(=O)CC1(C)CCC(=O)O1,-0.7472
B-2493,"succinic acid, 2-ethyl-3-phenyl-",AAQWYJPJRWOQEV-UHFFFAOYSA-N,CCC(C(C(O)=O)c1ccccc1)C(O)=O,-2.3256
B-2494,"benzamide, 2,4-dichloro-n-hydroxy-n-phenyl-",HUOHOGDVFDYSTQ-UHFFFAOYSA-N,ON(c1ccccc1)C(=O)c2ccc(Cl)cc2Cl,-3.6723
B-2495,"pteridine, 2-(methylthio)-",LNTLWEUAGAFRJR-UHFFFAOYSA-N,CSc1ncc2nccnc2n1,-1.7561
B-2496,"barbituric acid, 5-bromo-5-isopropyl-",VDWQDWRNMYXLOV-UHFFFAOYSA-N,CC(C)C1(Br)C(=O)NC(=O)NC1=O,-2.2088
B-2497,"1,4-benzenedisulfonamide",WOUBWJAJSXAOIV-UHFFFAOYSA-N,N[S](=O)(=O)c1ccc(cc1)[S](N)(=O)=O,-2.5283
B-2498,"barbituric acid,5,5-dibutyl-",KXOZJFGEGGNJDX-UHFFFAOYSA-N,CCCCC1(CCCC)C(=O)NC(=O)NC1=O,-2.8756
B-2499,8-cinnolinol,UCYUOFIVFHOUTP-UHFFFAOYSA-N,Oc1cccc2ccnnc12,-2.4089
B-2500,"8-cinnolinol, 4-methyl-",OLTFEHQRFCVOLY-UHFFFAOYSA-N,Cc1cnnc2c(O)cccc12,-2.6783
B-2501,5-quinoxalinol,ZUQDDQFXSNXEOD-UHFFFAOYSA-N,Oc1cccc2nccnc12,-1.3468
B-2502,"1,6-naphthyridin-8-ol",WHFQWQIDXMOZBD-UHFFFAOYSA-N,Oc1cncc2cccnc12,-1.6576
B-2503,"glycine, n-[n-(n-carbamoylglycyl)glycyl]-",GKOORVATHBVNBA-UHFFFAOYSA-N,NC(=O)NCC(=O)NCC(=O)NCC(O)=O,-1.3505
B-2504,"butanoic acid, 2-(ethylamino)-",PRXQQZUWYABUCX-UHFFFAOYSA-N,CCNC(CC)C(O)=O,-0.4189
B-2505,"benzeneacetic acid, .alpha.-hydroxy-, (s)-",IWYDHOAUDWTVEP-ZETCQYMHSA-N,O[C@H](C(O)=O)c1ccccc1,0.1592
B-2506,"glycine, n-[n-(aminocarbonyl)glycyl]-",BMRYPQYWSJESHA-UHFFFAOYSA-N,NC(=O)NCC(=O)NCC(O)=O,-0.8996
B-2507,isopropyl t-butyl ether,HNFSPSWQNZVCTB-UHFFFAOYSA-N,CC(C)OC(C)(C)C,-2.3662
B-2508,"3,5-dinitro-l-tyrosine",SAZOSDSFLRXREA-YFKPBYRVSA-N,N[C@@H](Cc1cc(c(O)c(c1)[N+]([O-])=O)[N+]([O-])=O)C(O)=O,-1.5125
B-2509,"acetone, 4-(p-nitrophenyl)semicarbazone",XBOWKFFJMDFKOW-UHFFFAOYSA-N,CC(C)=NNC(=O)Nc1ccc(cc1)[N+]([O-])=O,-3.5952
B-2510,"1,3,5-benzenetricarboxylic acid, 2-methoxy-",VPHWGVPHJXKPOK-UHFFFAOYSA-N,COc1c(cc(cc1C(O)=O)C(O)=O)C(O)=O,-1.5354
B-2511,"1(3h)-isobenzofuranone, 3-ethyl-",VMTZKGPXYYJUAR-UHFFFAOYSA-N,CCC1OC(=O)c2ccccc12,-1.747
B-2512,metolazone,AQCHWTWZEMGIFD-UHFFFAOYSA-N,CC1Nc2cc(Cl)c(cc2C(=O)N1c3ccccc3C)[S](N)(=O)=O,-3.783
B-2513,"1,2,4-triazin-3-amine, 5,6-dimethyl-",UIKGLXJNZXSPGV-UHFFFAOYSA-N,Cc1nnc(N)nc1C,-1.0939
B-2514,bensultap,YFXPPSKYMBTNAV-UHFFFAOYSA-N,CN(C)C(CS[S](=O)(=O)c1ccccc1)CS[S](=O)(=O)c2ccccc2,-5.76
B-2515,"butanedinitrile, ethyl-",GDCJAPJJFZWILF-UHFFFAOYSA-N,CCC(CC#N)C#N,-0.6916
B-2516,amicetin,HDNVYHWHCVTDIV-UHFFFAOYSA-N,CC1OC(CCC1OC2OC(C)C(C(O)C2O)N(C)C)N3C=CC(=NC3=O)NC(=O)c4ccc(NC(=O)C(C)(N)CO)cc4,-2.4904
B-2517,"1,2-benzenedicarboxylic acid, mono(2-hydroxyethy",NTINFTOOVNKGIU-UHFFFAOYSA-N,OCCOC(=O)c1ccccc1C(O)=O,-1.4825
B-2520,"phenol, 4-amino-2,6-dinitro-",TTXPIURLJOPGTE-UHFFFAOYSA-N,Nc1cc(c(O)c(c1)[N+]([O-])=O)[N+]([O-])=O,-2.3853
B-2521,fentiazac,JIEKMACRVQTPRC-UHFFFAOYSA-N,OC(=O)Cc1sc(nc1c2ccc(Cl)cc2)c3ccccc3,-4.9644
B-2522,"1-pentene, 5-isothiocyanato-",DBISBKDNOKIADM-UHFFFAOYSA-N,C=CCCCN=C=S,-2.9004
B-2523,"[1,1'-biphenyl]-3-ol, 4-nitro-",HYPKGPVDQYUOSV-UHFFFAOYSA-N,Oc1cc(ccc1[N+]([O-])=O)c2ccccc2,-3.8557
B-2524,"benzaldehyde, 4-hydroxy-3-methoxy-2-methyl-",NHXMRQITQSBVLJ-UHFFFAOYSA-N,COc1c(C)c(C=O)ccc1O,-1.3755
B-2525,"benzoic acid, 4-amino-, 1-methylethyl ester",JWCPZKNBPMSYND-UHFFFAOYSA-N,CC(C)OC(=O)c1ccc(N)cc1,-2.6099
B-2527,"1-propanamine, 3-(trimethylsilyl)-",PFRLCKFENIXNMM-UHFFFAOYSA-N,C[Si](C)(C)CCCN,-1.9509
B-2528,"hydrazinecarboximidamide, n-nitro-",LWPLPMSGDZDOLW-UHFFFAOYSA-N,NNC(=N)N[N+]([O-])=O,-1.6458
B-2529,"benzenemethanol, 4-iodo-",CNQRHSZYVFYOIE-UHFFFAOYSA-N,OCc1ccc(I)cc1,-2.746
B-2530,"1,2-cyclohexanedione, 3-methyl-, dioxime",KVMQRKQPHOCZHY-UHFFFAOYSA-N,CC1CCCC(=NO)C1=NO,-1.5916
B-2531,"1,2-cyclohexanedione, 4-methyl-, dioxime",GJADLHDOELLEFC-UHFFFAOYSA-N,CC1CCC(=C(C1)NO)N=O,-1.6622
B-2532,"1,2-cyclohexanedione, 4-isopropyl-, dioxime",NYHAZDHVIPVSDM-UHFFFAOYSA-N,CC(C)C1CCC(=NO)C(C1)=NO,-2.3903
B-2533,"l-alanine, n-(aminocarbonyl)-",LUSWEUMSEVLFEQ-REOHCLBHSA-M,C[C@H](NC(N)=O)C([O-])=O,-0.9656
B-2534,"benz(a)anthracene-4,5-dimethylene",XVSYIHPFNPQXRA-UHFFFAOYSA-N,Cc1cccc2c3cc4ccccc4cc3cc(C)c12,-7.9743
B-2535,"1,2-cyclodecanedione, dioxime",SUIIPPMGDURFRE-UHFFFAOYSA-N,ON=C1CCCCCCCCC1=NO,-2.5813
B-2536,"2-cyclopenta[c]pyran-4-carboxylic acid, 1-(-d-g",AMBQHHVBBHTQBF-UOUCRYGSSA-N,COC(=O)C1=CO[C@@H](O[C@@H]2O[C@H](CO)[C@@H](O)[C@H](O)[C@H]2O)[C@@H]3[C@@H](C)[C@@H](O)C[C@H]13,-0.5911
B-2538,"ethanesulfinothioic acid, s-ethyl ester",FIWQKOIUXFENIV-UHFFFAOYSA-N,CCS[S](=O)CC,-0.0993
B-2539,albuterol,NDAUXUAQIAJITI-UHFFFAOYSA-N,CC(C)(C)NCC(O)c1ccc(O)c(CO)c1,-1.2298
B-2540,"2h-pyran, tetrahydro-2-methoxy-6-methyl-",FNEUIJOQHOUXIE-UHFFFAOYSA-N,COC1CCCC(C)O1,-0.5921
B-2541,"2-oxabicyclo[2.2.2]octan-6-one, 1,3,3-trimethyl-",CCBAAZXPXFYPBE-UHFFFAOYSA-N,CC1(C)OC2(C)CCC1CC2=O,-0.9249
B-2542,methabenzthiazuron,RRVIAQKBTUQODI-UHFFFAOYSA-N,CNC(=O)N(C)c1sc2ccccc2n1,-3.5741
B-2543,"3-heptanol, 2-methyl-",QGVFLDUEHSIZIG-UHFFFAOYSA-N,CCCCC(O)C(C)C,-1.8122
B-2544,"3-heptanol, 5-methyl-",SECKOSOTZOBWEI-UHFFFAOYSA-N,CCC(C)CC(O)CC,-1.8602
B-2545,ethylisopentylcarbinol,MNBIBGDICHMQFN-UHFFFAOYSA-N,CCC(O)CCC(C)C,-1.9272
B-2546,"2,5-selenophenedicarboxylic acid, tetrahydro-",WFKGWJKGEDFLTH-UHFFFAOYSA-N,OC(=O)C1CCC([Se]1)C(O)=O,-0.545
B-2547,isoxathion,SDMSCIWHRZJSRN-UHFFFAOYSA-N,CCO[P](=S)(OCC)Oc1cc(on1)c2ccccc2,-5.2172
B-2548,"butanoic acid, 3-methyl-, 4-nitrophenyl ester",SZQWZNOMEWDZLR-UHFFFAOYSA-N,CC(C)CC(=O)Oc1ccc(cc1)[N+]([O-])=O,-4.3945
B-2549,"benzenemethanol, 2-bromo-",IOWGHQGLUMEZKG-UHFFFAOYSA-N,OCc1ccccc1Br,-2.158
B-2551,"acetamide, n- 4- (2-pyridinylamino)sulfonyl phen",CYLYVXPHAQLXFG-UHFFFAOYSA-N,CC(=O)Nc1ccc(cc1)[S](=O)(=O)Nc2ccccn2,-3.7162
B-2552,"2,4-pteridinediamine, 6,7-diethyl-",BUZKILZDXOORCH-UHFFFAOYSA-N,CCc1nc2nc(N)nc(N)c2nc1CC,-3.2671
B-2553,"pteridine, 2-(methylamino)-",FCJSISFRKUULPL-UHFFFAOYSA-N,CNc1ncc2nccnc2n1,-1.7124