ID,Name,InChIKey,SMILES,Solubility
B-2554,"nicotinamide, n-(6-methoxy-8-quinolyl)-",ZWJRCYOUDPYYAQ-UHFFFAOYSA-N,COc1cc(NC(=O)c2cccnc2)c3ncccc3c1,-4.4461
B-2555,polyoxin b,YFZNSPMAOIVQRP-KMJOXCMOSA-N,N[C@@H]([C@H](O)[C@@H](O)COC(N)=O)C(=O)N[C@@H]([C@H]1O[C@H](C(O)C1O)N2C=C(CO)C(=O)NC2=O)C(O)=O,0.2946
B-2556,5-chlorovanillin,ONIVKFDMLVBDRK-UHFFFAOYSA-N,COc1cc(C=O)cc(Cl)c1O,-2.8747
B-2557,"1(3h)-isobenzofuranone, 6-bromo-",BELKVKMBIAENSA-UHFFFAOYSA-N,Brc1ccc2COC(=O)c2c1,-2.6472
B-2558,"3,5-dimethyl-4-heptanol",ZKXITRNXHWEQJU-UHFFFAOYSA-N,CCC(C)C(O)C(C)CC,-2.5108
B-2560,"phenol, 2,4-dichloro-6-(phenylmethyl)-",MJTIYXIISJNFMG-UHFFFAOYSA-N,Oc1c(Cl)cc(Cl)cc1Cc2ccccc2,-4.6399
B-2561,"1(3h)-isobenzofuranone, 6-chloro-",NUAVXUHBPNMQEV-UHFFFAOYSA-N,Clc1ccc2COC(=O)c2c1,-2.4817
B-2563,"1-naphthoic acid, 4-ethoxy-",AOKDTARDWHVNDE-UHFFFAOYSA-N,CCOc1ccc(C(O)=O)c2ccccc12,-4.1122
B-2564,"1,2-butanediol, 2-methyl-1-phenyl-",VUHBPPSSQKUCSE-UHFFFAOYSA-N,CCC(C)(O)C(O)c1ccccc1,-1.7244
B-2565,"d-leucine, n-acetyl-",WXNXCEHXYPACJF-SSDOTTSWSA-N,CC(C)C[C@@H](NC(C)=O)C(O)=O,-1.3301
B-2567,"dl-serine, o-methyl-",KNTFCRCCPLEUQZ-VKHMYHEASA-N,COC[C@H](N)C(O)=O,0.6524
B-2568,"4(1h)-pyrimidinone, 5-bromo-",CLJIGLPOBRSBNU-UHFFFAOYSA-N,BrC1=CN=CNC1=O,-0.4471
B-2569,"3-pyridinecarbonitrile, 6-chloro-1,2-dihydro-4-h",RXXVHWHDEKSPRL-UHFFFAOYSA-N,OC1=C(C#N)C(=O)C=C(Cl)N1,-1.2319
B-2570,"propanoic acid, 3-hydroxy-2-methyl-, 2,3,3a,4,5,",VOOFFTMORIBISQ-UMRVURNHSA-N,CC(CO)C(=O)O[C@H]1CC(=C/CCC(=C/[C@H]2OC(=O)C(=C)[C@H]12)/CO)/C,-2.2436
B-2571,ethyl isopropylamine,RIVIDPPYRINTTH-UHFFFAOYSA-N,CCNC(C)C,1.0597
B-2572,"1,2,3,4-tetrachloronaphthalene",NAQWICRLNQSPPW-UHFFFAOYSA-N,Clc1c(Cl)c(Cl)c2ccccc2c1Cl,-7.7954
B-2573,"benzoic acid, 4-amino-, dodecyl ester",IXYYMEVNJZMVBN-UHFFFAOYSA-N,CCCCCCCCCCCCOC(=O)c1ccc(N)cc1,-7.8
B-2574,"2-furaldehyde, 5-nitro-, 2-pentylsemicarbazone",WWWBXFHCAYRVDH-UHFFFAOYSA-N,CCCCCN(N=Cc1oc(cc1)[N+]([O-])=O)C(N)=O,-2.8971
B-2575,"a-(2,2,2-trichloroethyl)styrene",JNHUFDXYWPRKLK-UHFFFAOYSA-N,ClC(Cl)(Cl)CC(=C)c1ccccc1,-4.2822
B-2576,cinmetacin,NKPPORKKCMYYTO-DHZHZOJOSA-N,COc1ccc2n(c(C)c(CC(O)=O)c2c1)C(=O)\C=C\c3ccccc3,-5.5433
B-2577,diethyl pentyl phosphate,ITJPTURSPJESQC-UHFFFAOYSA-N,CCCCCO[P](=O)(OCC)OCC,-1.4757
B-2579,"2-butanol, 3,3-dimethyl-, (.+-.)-",DFOXKPDFWGNLJU-UHFFFAOYSA-N,CC(O)C(C)(C)C,-0.6238
B-2580,"3-octanol, (.+-.)-",NMRPBPVERJPACX-UHFFFAOYSA-N,CCCCCC(O)CC,-2.0171
B-2581,"phosphorodithioic acid, s-[2-(ethylsulfonyl)ethy",GAXMYYJSILFZLT-UHFFFAOYSA-N,CC[S](=O)(=O)CCS[P](=S)(OC)OC,-2.5415
B-2582,tripropylene glycol methyl ether,HPFDGTFXAVIVTH-UHFFFAOYSA-N,COCC(C)OCC(C)OCC(C)O,0.6855
B-2584,"acetamide, n-(4-propoxyphenyl)-",WDRXFPOGKSGHFM-UHFFFAOYSA-N,CCCOc1ccc(NC(C)=O)cc1,-3.0557
B-2585,"2-bornanone, 3-(hydroxymethyl)-",YWQRRMNZXWQQJU-UHFFFAOYSA-N,CC1(C)C2CCC1(C)C(=O)C2CO,-0.215
B-2586,"urea, 1-methyl-1-o-tolyl-",IWYDNHDPJXFEOV-UHFFFAOYSA-N,CN(C(N)=O)c1ccccc1C,-0.4032
B-2587,1-hexyl nitrate,AGDYNDJUZRMYRG-UHFFFAOYSA-N,CCCCCCO[N+]([O-])=O,-3.1265
B-2588,"urea, 1-ethyl-1-o-tolyl-",DVVVPMHPSRJZQX-UHFFFAOYSA-N,CCN(C(N)=O)c1ccccc1C,-0.2096
B-2589,"5-pyrimidineacetic acid, 1,2,3,4-tetrahydro-2,4-",ZVGODTQUYAKZMK-UHFFFAOYSA-N,OC(=O)CC1=CNC(=O)NC1=O,-1.6287
B-2590,"1,2-pentanediol, 1-phenyl-2-propyl-",FGVUALJOVZKHOH-UHFFFAOYSA-N,CCCC(O)(CCC)C(O)c1ccccc1,-2.648
B-2591,"1,2-hexanediol, 2-butyl-1phenyl-",MGJOTHOXCFYBTC-UHFFFAOYSA-N,CCCCC(O)(CCCC)C(O)c1ccccc1,-3.2225
B-2592,"pyridine, 2,3,4,6-tetramethyl-",QBSVEFGWBSANTE-UHFFFAOYSA-N,Cc1cc(C)c(C)c(C)n1,-1.3069
B-2593,digoxin,LTMHDMANZUZIPE-PUGKRICDSA-N,C[C@H]1O[C@H](C[C@H](O)[C@@H]1O)O[C@H]2[C@@H](O)C[C@@H](O[C@@H]2C)O[C@H]3[C@@H](O)C[C@@H](O[C@@H]3C)O[C@H]4CC[C@@]5(C)[C@H](CC[C@@H]6[C@@H]5C[C@@H](O)[C@]7(C)[C@H](CC[C@]67O)C8=CC(=O)OC8)C4,-4.0811
B-2594,chloraniformethane,REEFSLKDEDEWAO-UHFFFAOYSA-N,Clc1ccc(NC(NC=O)C(Cl)(Cl)Cl)cc1Cl,-3.3228
B-2595,"1,2,4-thiadiazolidine-3,5-dithione",OTNSJAUBOYWVEB-UHFFFAOYSA-N,S=C1NSC(=S)N1,-1.7618
B-2597,tonalid,DNRJTBAOUJJKDY-UHFFFAOYSA-N,CC1CC(C)(C)c2cc(C(C)=O)c(C)cc2C1(C)C,-5.3154
B-2598,"1,3-benzenedicarboxylic acid, 2-nitro-",CAHWDGJDQYAFHM-UHFFFAOYSA-N,OC(=O)c1cccc(C(O)=O)c1[N+]([O-])=O,-1.9901
B-2599,prynachlor,DGPBHERUGBOSFZ-UHFFFAOYSA-N,CC(C#C)N(C(=O)CCl)c1ccccc1,-2.6468
B-2600,"2-butanol, 3-chloro-2-methyl-",YYHQXKBKFKTDMP-UHFFFAOYSA-N,CC(Cl)C(C)(C)O,-0.2926
B-2601,"4,6-dinitro-biphenyl-3-ol",XIAPTRBHEBTAOZ-UHFFFAOYSA-N,Oc1cc(c2ccccc2)c(cc1[N+]([O-])=O)[N+]([O-])=O,-4.4611
B-2602,fosthietan,RHJOIOVESMTJEK-UHFFFAOYSA-N,CCO[P](=O)(OCC)N=C1SCS1,-0.6835
B-2603,2-(thiocyanatemethylthio)benzothiazole,TUBQDCKAWGHZPF-UHFFFAOYSA-N,N#CSCSc1sc2ccccc2n1,-3.2803
B-2604,"4-heptanol, 2-methyl-",QXPLZEKPCGUWEM-UHFFFAOYSA-N,CCCC(O)CC(C)C,-1.9079
B-2605,"benzoic acid, 5-bromo-2-chloro-",FGERXQWKKIVFQG-UHFFFAOYSA-M,[O-]C(=O)c1cc(Br)ccc1Cl,-1.952
B-2606,"2h-1,4-benzoxazin-3(4h)-one, 4-methyl-",DBJMEBUKQVZWMD-UHFFFAOYSA-N,CN1C(=O)COc2ccccc12,-2.1445
B-2607,"acetic acid, 1-(3,4-dichlorophenyl)-2,2,2-trichl",FSGNOVKGEXRRHD-UHFFFAOYSA-N,CC(=O)OC(c1ccc(Cl)c(Cl)c1)C(Cl)(Cl)Cl,-3.8279
B-2608,di-sec-butanolamine,KQIXMZWXFFHRAQ-UHFFFAOYSA-N,CCC(O)CNCC(O)CC,0.7925
B-2609,isopentyl nitrate,RWRBSYOTDDOXKC-UHFFFAOYSA-N,CCCC(C)O[N+]([O-])=O,-2.4809
B-2610,cartap hydrochloride,MSHXTAQSSIEBQS-UHFFFAOYSA-N,[Cl-].C[NH+](C)C(CSC(N)=O)CSC(N)=O,-0.1364
B-2611,"1,2,3-thiadiazole-4-carboxylic acid, 5-methyl-",ZLJIFINJKVSIRN-UHFFFAOYSA-N,Cc1snnc1C(O)=O,-0.4598
B-2612,biopterin,LHQIJBMDNUYRAM-UHFFFAOYSA-N,CC(O)C(O)c1cnc2NC(=NC(=O)c2n1)N,-2.5301
B-2613,benzoylprop ethyl,SLCGUGMPSUYJAY-UHFFFAOYSA-N,CCOC(=O)C(C)N(C(=O)c1ccccc1)c2ccc(Cl)c(Cl)c2,-4.2627
B-2614,tetrachlorvinphos,UBCKGWBNUIFUST-BJMVGYQFSA-N,CO[P](=O)(OC)OC(=C/Cl)/c1cc(Cl)c(Cl)cc1Cl,-4.5221
B-2615,"acetamide, n-(4-ethoxyphenyl)-2-hydroxy-",UJUHYRDNSIRHHG-UHFFFAOYSA-N,CCOc1ccc(NC(=O)CO)cc1,-2.1058
B-2616,"acetic acid, bis(2-carboxyphenyl)-",AOTLXSIYOKZSAI-UHFFFAOYSA-N,OC(=O)C(c1ccccc1C(O)=O)c2ccccc2C(O)=O,-2.4998
B-2617,"methanesulfonamide, n-phenyl-n-((1,1,2,2-tetrach",SVIKNKPDPGCMAE-UHFFFAOYSA-N,C[S](=O)(=O)N(SC(Cl)(Cl)C(F)(Cl)Cl)c1ccccc1,-5.1485
B-2618,"benzenepropanoic acid, 2-nitro-.beta.-oxo-",PJDGOXXKHPBMQA-UHFFFAOYSA-N,OC(=O)CC(=O)c1ccccc1[N+]([O-])=O,-1.8434
B-2619,bendiocarb,XEGGRYVFLWGFHI-UHFFFAOYSA-N,CNC(=O)Oc1cccc2OC(C)(C)Oc12,-2.9338
B-2620,anisomycin,YKJYKKNCCRKFSL-BFHYXJOUSA-N,COc1ccc(C[C@@H]2NC[C@@H](O)[C@@H]2OC(C)=O)cc1,-1.6075
B-2621,"propanoic acid, 2,2,3,3-tetrafluoro-, sodium sal",SGUSXTMVKMPQKI-UHFFFAOYSA-M,[Na+].[O-]C(=O)C(F)(F)C(F)F,-0.8829
B-2622,dimethamrtryne,IKYICRRUVNIHPP-UHFFFAOYSA-N,CCNc1nc(NC(C)C(C)C)nc(SC)n1,-3.7082
B-2623,cyprazine,OOHIAOSLOGDBCE-UHFFFAOYSA-N,CC(C)Nc1nc(Cl)nc(NC2CC2)n1,-3.5185
B-2624,prallethrin,SMKRKQBMYOFFMU-DRXWIORDSA-N,CC(C)=C[C@H]1[C@H](C(=O)OC2CC(=O)C(=C2C)CC#C)C1(C)C,-4.5746
B-2625,"1h-purine-2,6-dione, 7-ethyl-3,7-dihydro-1,3-dim",RPOQNHMXOPWCEK-UHFFFAOYSA-N,CCn1cnc2N(C)C(=O)N(C)C(=O)c12,-0.7544
B-2626,pirimicarb,YFGYUFNIOHWBOB-UHFFFAOYSA-N,CN(C)C(=O)Oc1nc(nc(C)c1C)N(C)C,-1.9457
B-2627,oxamyl,KZAUOCCYDRDERY-UITAMQMPSA-N,CNC(=O)O\N=C(SC)\C(=O)N(C)C,0.1062
B-2628,"1h-purine-2,6-dione, 3,7-dihydro-7-(3-hydroxypro",QCGRMMZPZDAITA-UHFFFAOYSA-N,CN1C(=O)N(C)c2ncn(CCCO)c2C1=O,-0.1551
B-2630,formetanate hydrochloride,MYPKGPZHHQEODQ-UHFFFAOYSA-N,[H+].[Cl-].CNC(=O)Oc1cccc(c1)N=CN(C)C,0.5037
B-2631,pirimiphos ethyl,TZBPRYIIJAJUOY-UHFFFAOYSA-N,CCO[P](=S)(OCC)Oc1cc(C)nc(n1)N(CC)CC,-4.9242
B-2632,heptenophos,GBAWQJNHVWMTLU-UHFFFAOYSA-N,CO[P](=O)(OC)OC1=C(Cl)C2C=CCC12,-2.0011
B-2633,thiophanate-methyl,QGHREAKMXXNCOA-UHFFFAOYSA-N,COC(=O)NC(=S)Nc1ccccc1NC(=S)NC(=O)OC,-4.1097
B-2634,"octanedioic acid, 3,3,6,6-tetramethyl-",XCPSWBNEOGUWCT-UHFFFAOYSA-N,CC(C)(CCC(C)(C)CC(O)=O)CC(O)=O,-3.1319
B-2635,n-hexyl nicotinoate,RVYGVBZGSFLJKH-UHFFFAOYSA-N,CCCCCCOC(=O)c1cccnc1,-2.6538
B-2636,"phosphonic acid, (1,6-hexanediylbis(nitrilobis(m",KIDJHPQACZGFTI-UHFFFAOYSA-N,O[P](O)(=O)CN(CCCCCCN(C[P](O)(O)=O)C[P](O)(O)=O)C[P](O)(O)=O,-1.5161
B-2637,"1h-purin-8-amine, n,n-dimethyl-",WNLBOWJFJNZYPN-UHFFFAOYSA-N,CN(C)c1[nH]c2cncnc2n1,-1.3885
B-2638,"pteridine, 2,6,7-trimethyl-",ZGWOCNDIGLJDDX-UHFFFAOYSA-N,Cc1ncc2nc(C)c(C)nc2n1,-1.1442
B-2639,"d-glucose, (aminocarbonyl)hydrazone",NOUQGOYNEGWDCZ-SLPGGIOYSA-N,NC(=O)NN=C[C@H](O)[C@@H](O)[C@H](O)[C@H](O)CO,-1.0041
B-2640,"5-pyrimidinecarboxylic acid, 1,2,3,4-tetrahydro-",ZXYAAVBXHKCJJB-UHFFFAOYSA-N,OC(=O)C1=CNC(=O)NC1=O,-1.9381
B-2641,pronamide,PHNUZKMIPFFYSO-UHFFFAOYSA-N,CC(C)(NC(=O)c1cc(Cl)cc(Cl)c1)C#C,-4.2324
B-2642,triazophos,AMFGTOFWMRQMEM-UHFFFAOYSA-N,CCO[P](=S)(OCC)Oc1ncn(n1)c2ccccc2,-3.9049
B-2643,"naphtho[2,3-c]furan-1(3h)-one, 3,3-dimethyl-",RCRSAOBHVMTZFO-UHFFFAOYSA-N,CC1(C)OC(=O)c2cc3ccccc3cc12,-2.9844
B-2644,2-methyl-4-bromoacetanilide,IJZSFOIZVXCSFP-UHFFFAOYSA-N,CC(=O)Nc1ccc(Br)cc1C,-1.756
B-2645,"acetamide-2-chloro-n-(2,6-dimethylphenyl)-n-((2-",BIQOEDQVNIYWPQ-UHFFFAOYSA-N,CC(C)COCN(C(=O)CCl)c1c(C)cccc1C,-3.6822
B-2646,fenfuram,JFSPBVWPKOEZCB-UHFFFAOYSA-N,Cc1occc1C(=O)Nc2ccccc2,-3.3037
B-2647,"hexanedioic acid, 3-butyl-",SYBIZQPCZZHMNO-UHFFFAOYSA-N,CCCCC(CCC(O)=O)CC(O)=O,-1.3974
B-2649,"cyclopentaneacetic acid, 3-oxo-2-pentyl-, methyl",KVWWIYGFBYDJQC-UHFFFAOYSA-N,CCCCCC1C(CCC1=O)CC(=O)OC,-2.9076
B-2650,"4(1h)-pteridinone, 6,7-diphenyl-",UMUYUDSQRKTBKA-UHFFFAOYSA-N,O=C1N=CNc2nc(c3ccccc3)c(nc12)c4ccccc4,-3.1766
B-2651,"phenol, 2-iodo-6-methyl-",GZZUGNNHSZONTO-UHFFFAOYSA-N,Cc1cccc(I)c1O,-1.8378
B-2652,"2,5-dichlorodiphenyl ether",VITXVDNQHXYQSK-UHFFFAOYSA-N,Clc1ccc(Cl)c(Oc2ccccc2)c1,-4.9703
B-2653,"3,4',5-trichlorodiphenyl ether",CCEZFZGXWFJQEF-UHFFFAOYSA-N,Clc1ccc(Oc2cc(Cl)cc(Cl)c2)cc1,-5.5201
B-2654,chlormephos,QGTYWWGEWOBMAK-UHFFFAOYSA-N,CCO[P](=S)(OCC)SCCl,-3.5924
B-2655,benazolin-ethyl,WQRCEBAZAUAUQC-UHFFFAOYSA-N,CCOC(=O)CN1C(=O)Sc2cccc(Cl)c12,-3.762
B-2656,"acetic acid, (2,4-dinitrophenoxy)-",OWEDBRWCJFWVFZ-UHFFFAOYSA-N,OC(=O)COc1ccc(cc1[N+]([O-])=O)[N+]([O-])=O,-1.9369
B-2658,"2,4-d, isooctyl ester",QZSFJRIWRPJUOH-UHFFFAOYSA-N,CCCCC(CC)COC(=O)COc1ccc(Cl)cc1Cl,-7.0122
B-2659,hexene - mixture of isomers,RYPKRALMXUUNKS-HWKANZROSA-N,CCC\C=C\C,-3.2262
B-2660,dipropylene glycol,QYSXYAURTRCDJU-UHFFFAOYSA-N,CCC(O)OC(O)CC,0.8723
B-2661,"benzenesulfonamide, 4-(mannopyranosylamino)-",RMCYKIOWPVOBJX-IKQSSVLVSA-N,N[S](=O)(=O)c1ccc(NC2O[C@H](CO)[C@@H](O)[C@H](O)[C@@H]2O)cc1,-0.9801
B-2662,mcpa-thioethyl,AZFKQCNGMSSWDS-UHFFFAOYSA-N,CCSC(=O)COc1ccc(Cl)cc1C,-5.027
B-2663,1-<hydroxyimino-(seqtrans)>-1-phenyl-acetone,YQHWURFNAULYNW-MDZDMXLPSA-N,CC(=O)C(=N\O)/c1ccccc1,-2.3676
B-2664,thiazafluron,BBJPZPLAZVZTGR-UHFFFAOYSA-N,CNC(=O)N(C)c1sc(nn1)C(F)(F)F,-2.0584
B-2665,"1,2-dibromoethene",UWTUEMKLYAGTNQ-OWOJBTEDSA-N,Br\C=C\Br,-1.7415
B-2666,hydroxycinnamic acid,KKSDGJDHHZEWEP-PLNGDYQASA-N,OC(=O)\C=C/c1cccc(O)c1,-2.099
B-2667,dowanol tpm,GVZNXUAPPLHUOM-UHFFFAOYSA-N,COCC(C)OCC(C)OC(C)CO,0.6855
B-2669,fosamine ammonium salt,OTSAMNSACVKIOJ-UHFFFAOYSA-N,[NH4+].CCO[P]([O-])(=O)C(N)=O,0.7693
B-2671,"1,4-naphthalenedione, 2-(methylthio)-",GGFFBRRZAKLGFX-UHFFFAOYSA-N,CSC1=CC(=O)c2ccccc2C1=O,-4.4651
B-2674,profluralin,ITVQAKZNYJEWKS-UHFFFAOYSA-N,CCCN(CC1CC1)c2c(cc(cc2[N+]([O-])=O)C(F)(F)F)[N+]([O-])=O,-6.5407
B-2675,tirpate,GHFMMRFMDHDOBP-BJMVGYQFSA-N,CNC(=O)O/N=C/C1(C)SCC(C)S1,-2.3698
B-2676,cresyl diphenyl phosphate,OJUZRFGUKHQNJX-UHFFFAOYSA-N,Cc1ccc(O[P](=O)(Oc2ccccc2)Oc3ccccc3)cc1,-6.1517
B-2677,"phosphoric acid, bis(methylphenyl) phenyl ester",DAZHWGHCARQALS-UHFFFAOYSA-N,Cc1ccc(O[P](=O)(Oc2ccccc2)Oc3ccccc3C)cc1,-6.3733
B-2678,"3(2h)-isothiazolone, 2-octyl-",JPMIIZHYYWMHDT-UHFFFAOYSA-N,CCCCCCCCN1SC=CC1=O,-2.6301
B-2679,hexachlorobiphenyl,RUEIBQJFGMERJD-UHFFFAOYSA-N,Clc1ccccc1c2c(Cl)c(Cl)c(Cl)c(Cl)c2Cl,-8.0133
B-2680,"phosphoric acid, diethyl 2-methylpropyl ester",VAUVEZMZAPNZOT-UHFFFAOYSA-N,CCO[P](=O)(OCC)OCC(C)C,-1.1765
B-2681,"pentanoic acid, 4-oxo-3-(phenylmethylene)-",BNQYXFAVUMPZFG-UHFFFAOYSA-N,CC(=O)C(CC(O)=O)=Cc1ccccc1,-1.6111
B-2683,"4(1h)-pyrimidinone, 5-bromo-2-phenyl-",MWZGHIGOSHTXGY-UHFFFAOYSA-N,BrC1=CNC(=NC1=O)c2ccccc2,-3.4792
B-2686,"butanoic acid, 1,2-ethanediylbis(oxy-2,1-ethaned",AJMJPGWUPHIMKQ-UHFFFAOYSA-N,CCCC(=O)OCCOCCOCCOC(=O)CCC,-1.5598
B-2687,"3-pyridinecarboxamide, n-[(phenylamino)carbonyl]",QSHWUEPEDUMMBW-UHFFFAOYSA-N,O=C(NC(=O)c1cccnc1)Nc2ccccc2,-3.3825
B-2689,hexachlorocyclohexane,REDUMVQOCNAQCW-UHFFFAOYSA-N,ClC1CC(Cl)(Cl)C(Cl)C(Cl)C1Cl.ClC2CCC(Cl)(Cl)C(Cl)C2(Cl)Cl.ClC3C(Cl)C(Cl)C(Cl)C(Cl)C3Cl,-4.9408
B-2691,tetradecanol,HRDGAIGDKJXHIU-UHFFFAOYSA-N,CCCCCCCCCCC(O)CCC,-5.837
B-2692,norflurazon,NVGOPFQZYCNLDU-UHFFFAOYSA-N,CNC1=C(Cl)C(=O)N(N=C1)c2cccc(c2)C(F)(F)F,-3.9548
B-2693,tetrachlorophthalide,NMWKWBPNKPGATC-UHFFFAOYSA-N,Clc1c(Cl)c(Cl)c2C(=O)OCc2c1Cl,-5.0365
B-2694,ethychlozate,GLPZEHFBLBYFHN-UHFFFAOYSA-N,CCOC(=O)Cc1[nH]nc2ccc(Cl)cc12,-3.0256
B-2695,quinonamid,ZIEWAMOXCOLNSJ-UHFFFAOYSA-N,ClC(Cl)C(=O)NC1=C(Cl)C(=O)c2ccccc2C1=O,-5.0261
B-2696,diisooctyl phthalate,IJFPVINAQGWBRJ-UHFFFAOYSA-N,CC(C)CCCCCOC(=O)c1ccccc1C(=O)OCCCCCC(C)C,-6.6375
B-2697,probenazole,WHHIPMZEDGBUCC-UHFFFAOYSA-N,C=CCOC1=N[S](=O)(=O)c2ccccc12,-3.1727
B-2698,"2-butanone, 3-ethoxy-1,1-dihydroxy-; or kethoxal",YRCRRHNVYVFNTM-UHFFFAOYSA-N,CCOC(C)C(=O)C(O)O,-0.1707
B-2699,"1,1'-biphenyl, octabromo-",NDRKXFLZSRHAJE-UHFFFAOYSA-N,Brc1ccc(c(Br)c1Br)c2c(Br)c(Br)c(Br)c(Br)c2Br,-9.351
B-2700,isopropyl phenyl diphenyl phosphate,JJXNVYMIYBNZQX-UHFFFAOYSA-N,CC(C)c1ccccc1O[P](=O)(Oc2ccccc2)Oc3ccccc3,-5.2239
B-2701,"2h-purine-2-thione, 1,3-dihydro-",HDBQZGJWHMCXIL-UHFFFAOYSA-N,S=C1Nc2nc[nH]c2C=N1,-2.5803
B-2702,"2,6-dinitro-biphenyl-3-ol",RAHRBPFKDAZSCJ-UHFFFAOYSA-N,Oc1ccc(c(c2ccccc2)c1[N+]([O-])=O)[N+]([O-])=O,-3.7164
B-2703,chloromethiuron,IBZZDPVVVSNQOY-UHFFFAOYSA-N,CN(C)C(=S)Nc1ccc(Cl)cc1C,-3.6604
B-2704,"2,6-dichlorodiphenyl ether",IRLZOQDGEAEIPX-UHFFFAOYSA-N,Clc1cccc(Cl)c1Oc2ccccc2,-5.0605
B-2705,bioresmethrin,VEMKTZHHVJILDY-UHFFFAOYSA-N,CC(C)=CC1C(C(=O)OCc2coc(Cc3ccccc3)c2)C1(C)C,-6.0524
B-2706,"1,2-dithiane-3,6-dicarboxylic acid, cis-",NQRRVGBUZRSXRF-ZXZARUISSA-N,OC(=O)[C@@H]1CC[C@@H](SS1)C(O)=O,-1.1709
B-2707,"2,4(1h,3h)-pyrimidinedione, 1-methyl-5-nitro-",JTVBCXIVJCAUBK-UHFFFAOYSA-N,CN1C=C(C(=O)NC1=O)[N+]([O-])=O,-1.9977
B-2710,dinitramine,OFDYMSKSGFSLLM-UHFFFAOYSA-N,CCN(CC)c1c(cc(c(N)c1[N+]([O-])=O)C(F)(F)F)[N+]([O-])=O,-5.4668
B-2712,benzoximate,HOERQTQCTISLFR-UHFFFAOYSA-N,CCN(OC(=O)c1ccccc1)C(=O)c2c(OC)ccc(Cl)c2OC,-4.0837
B-2713,atenolol,METKIMKYRPQLGS-UHFFFAOYSA-N,CC(C)NCC(O)COc1ccc(CC(N)=O)cc1,-1.3016
B-2714,"propanediamide, 2,2-diethyl-",IYZYMNZTUFOYHR-UHFFFAOYSA-N,CCC(CC)(C(N)=O)C(N)=O,-1.1992
B-2715,Mecarphon,PUTUPQVEMBRCAG-UHFFFAOYSA-N,COC(=O)N(C)C(=O)CS[P](C)(=S)OC,-1.9563
B-2717,hexadecanol,JIMMILCKVYOFET-UHFFFAOYSA-N,CCCCCCCCCCCCC(O)CCC,-6.7708
B-2718,"1-naphthalenecarboxamide, n-hydroxy-n-phenyl-",MDPNINYZZKJMBC-UHFFFAOYSA-N,ON(c1ccccc1)C(=O)c2cccc3ccccc23,-3.9433
B-2719,"benzamide, n-hydroxy-n-1-naphthalenyl-",PZBPQFNCQFUIOP-UHFFFAOYSA-N,ON(C(=O)c1ccccc1)c2cccc3ccccc23,-3.3065
B-2720,"benzamide, 3,5-dinitro-n-phenyl-n-hydroxy-",CHBUFRFETPYQCI-UHFFFAOYSA-N,ON(c1ccccc1)C(=O)c2cc(cc(c2)[N+]([O-])=O)[N+]([O-])=O,-3.6367
B-2721,"acetic acid, [(aminothioxomethyl)thio]-",KXMZHKOZDQLZMO-UHFFFAOYSA-N,NC(=S)SCC(O)=O,-0.7482
B-2722,"glycine, n-(dithiocarboxy)-, n-ester with mercap",FKNJURNHJJFOFH-UHFFFAOYSA-N,OC(=O)CNC(=S)SCC(O)=O,-1.3011
B-2723,"benzamide, n-[2-(1h-imidazol-4-yl)ethyl]-",DAUCLDROLUGJDY-UHFFFAOYSA-N,O=C(NCCc1c[nH]cn1)c2ccccc2,-0.634
B-2724,isodecyl diphenyl phosphate,RYUJRXVZSJCHDZ-UHFFFAOYSA-N,CC(C)CCCCCCCO[P](=O)(Oc1ccccc1)Oc2ccccc2,-5.7165
B-2727,ethiofencarb,HEZNVIYQEUHLNI-UHFFFAOYSA-N,CCSCc1ccccc1OC(=O)NC,-2.0927
B-2728,"1,2:3,4-diepoxybutane (2s,3s)",ZFIVKAOQEXOYFY-IMJSIDKUSA-N,C1O[C@@H]1[C@@H]2CO2,1.065
B-2729,ethidimuron,KCOCSOWTADCKOL-UHFFFAOYSA-N,CC[S](=O)(=O)c1sc(nn1)N(C)C(=O)NC,-1.945
B-2730,"propanoic acid, 2-(2,4,5-trichlorophenoxy)-, (r)",ZLSWBLPERHFHIS-SCSAIBSYSA-N,C[C@@H](Oc1cc(Cl)c(Cl)cc1Cl)C(O)=O,-3.1295
B-2731,"2-furanol, 5-ethyltetrahydro-",VPPOYUGGWUIGDG-UHFFFAOYSA-N,CCC1CCC(O)O1,-0.0651
B-2732,"1,2:3,4-diepoxybutane (2r,3r)",ZFIVKAOQEXOYFY-QWWZWVQMSA-N,C1O[C@H]1[C@H]2CO2,1.065
B-2733,"1,6-dioxaspiro[4,4]nonane, 2,7-dimethyl-",PUKTVFNQVGOXPI-UHFFFAOYSA-N,CC1CCC2(CCC(C)O2)O1,-0.4487
B-2734,"thymidine, 3'-azido-3'-deoxy-",HBOMLICNUCNMMY-XLPZGREQSA-N,CC1=CN([C@H]2C[C@H](N=[N+]=[N-])[C@@H](CO)O2)C(=O)NC1=O,-1.1221
B-2735,etofenamate,XILVEPYQJIOVNB-UHFFFAOYSA-N,OCCOCCOC(=O)c1ccccc1Nc2cccc(c2)C(F)(F)F,-5.3633
B-2736,"pteridine, 4-methoxy-",KCCOKUSVNPDIBJ-UHFFFAOYSA-N,COc1ncnc2nccnc12,-1.113
B-2737,zolone,YAAFKGCBOCRHIF-UHFFFAOYSA-N,CCO[P](=S)(OCC)SCN1C(=O)Oc2ccccc12,-5.1905
B-2738,benzo(a)fluorene,HKMTVMBEALTRRR-UHFFFAOYSA-N,C1c2ccccc2c3ccc4ccccc4c13,-6.678
B-2740,Methacrifos,NTAHCMPOMKHKEU-AATRIKPKSA-N,COC(=O)C(/C)=C/O[P](=S)(OC)OC,-2.7785
B-2741,cafaminol,ZGNRRVAPHPANFI-UHFFFAOYSA-N,CN(CCO)c1nc2N(C)C(=O)N(C)C(=O)c2n1C,-0.6488
B-2742,isocarbamid,SBYAVOHNDJTVPA-UHFFFAOYSA-N,CC(C)CNC(=O)N1CCNC1=O,-2.1538
B-2743,"3(2h)-thiazoleacetic acid, 4-methyl-2-thioxo-",FVQQWSSTYVBNST-UHFFFAOYSA-N,CC1=CSC(=S)N1CC(O)=O,-1.9632
B-2744,metrizamide,BAQCROVBDNBEEB-OPRFMTNSSA-N,CN(C(C)=O)c1c(I)c(NC(C)=O)c(I)c(C(=O)NC2[C@@H](O)OC(CO)[C@@H](O)C2O)c1I,-0.1982
B-2745,propetamphos,BZNDWPRGXNILMS-CLFYSBASSA-N,CCN[P](=S)(OC)OC(/C)=C\C(=O)OC(C)C,-3.4078
B-2746,3-methyl-2-heptanol,SZERMVMTUUAYML-UHFFFAOYSA-N,CCCCC(C)C(C)O,-2.0578
B-2748,"benzo[a]pyrene, 5-methyl-",JQANOYBJRYYFQI-UHFFFAOYSA-N,Cc1cc2cccc3ccc4c5ccccc5cc1c4c23,-8.5224
B-2749,lyral,ORMHZBNNECIKOH-UHFFFAOYSA-N,CC(C)(O)CCCC1=CCC(CC1)C=O,-1.5376
B-2750,heptachloronaphthalene,QYEGXUUXWMKHHS-UHFFFAOYSA-N,Clc1cc(Cl)c2c(Cl)c(Cl)c(Cl)c(Cl)c2c1Cl,-8.775
B-2751,divicine,NVANETMVFYSFSK-UHFFFAOYSA-N,NC1N=C(N)NC(=O)C1=O,-1.6978
B-2752,"2-furoic acid, 3,4,5-trichloro-",WKDGIASDCHPIDT-UHFFFAOYSA-N,OC(=O)c1oc(Cl)c(Cl)c1Cl,-2.2193
B-2753,"9-octadecenoic acid, 12-(sulfooxy)-, (z)-",CYKFQSXTIVGYDT-XFXZXTDPSA-N,CCCCCCC(C\C=C/CCCCCCCC(O)=O)O[S](O)(=O)=O,-0.5781
B-2754,"4-quinolinecarboxylic acid, 1,2-dihydro-6-methox",ATQXNYQCZFMIKY-UHFFFAOYSA-M,COc1ccc2NC(=O)C=C(C([O-])=O)c2c1,-3.1104
B-2755,"d-glucuronic acid, .gamma.-lactone",UYUXSRADSPPKRZ-SKNVOMKLSA-N,O[C@@H](C=O)[C@H]1OC(=O)[C@@H](O)[C@H]1O,0.1641
B-2756,"2-furancarboxylic acid, 3,4-dibromo-",ISBXWVSYAWHMSU-UHFFFAOYSA-N,OC(=O)c1occ(Br)c1Br,-2.0887
B-2757,"succinamic acid, 3-amino-2-hydroxy-",XTAAXERUXNEDCQ-UHFFFAOYSA-N,NC(C(O)C(O)=O)C(N)=O,-1.1494
B-2758,"2(1h)-pyrimidinone, 4-amino-5-ethyl-",CZJGCEGNCSGRBI-UHFFFAOYSA-N,CCC1=CNC(=O)N=C1N,-1.0197
B-2760,"2,3,3',4,4'-pentachloro-1,1'-biphenyl",WIDHRBRBACOVOY-UHFFFAOYSA-N,Clc1ccc(cc1Cl)c2ccc(Cl)c(Cl)c2Cl,-7.9823
B-2761,"1,2-dithiane-3,6-dicarboxylic acid, trans-",NQRRVGBUZRSXRF-QWWZWVQMSA-N,OC(=O)[C@H]1CC[C@@H](SS1)C(O)=O,-1.5241
B-2762,"3,3',4,4',5,5'-pcb",ZHLICBPIXDOFFG-UHFFFAOYSA-N,Clc1cc(cc(Cl)c1Cl)c2cc(Cl)c(Cl)c(Cl)c2,-8.8498
B-2763,procymidone,QXJKBPAVAHBARF-UHFFFAOYSA-N,CC12CC1(C)C(=O)N(C2=O)c3cc(Cl)cc(Cl)c3,-4.8003
B-2764,m-bromocinnamic acid,YEMUSDCFQUBPAL-SNAWJCMRSA-N,OC(=O)/C=C/c1cccc(Br)c1,-2.636
B-2765,amitraz,QXAITBQSYVNQDR-UHFFFAOYSA-N,CN(C=Nc1ccc(C)cc1C)C=Nc2ccc(C)cc2C,-5.4675
B-2766,"1,1'-biphenyl, 2,2',3,3',4,4',6,6'-octachloro-",YPDBBDKYNWRFMF-UHFFFAOYSA-N,Clc1cc(Cl)c(c(Cl)c1Cl)c2c(Cl)cc(Cl)c(Cl)c2Cl,-9.1
B-2767,2-ethylacetanilide,ZXOVAGUQXNXKHF-UHFFFAOYSA-N,CCc1ccccc1NC(C)=O,-1.5906
B-2768,endosulfan (beta),RDYMFSUJUZBWLH-VQDHCCOSSA-N,ClC1=C(Cl)C2(Cl)[C@@H]3CO[S](=O)OC[C@@H]3[C@@]1(Cl)C2(Cl)Cl,-5.9563
B-2769,fluchloralin,MNFMIVVPXOGUMX-UHFFFAOYSA-N,CCCN(CCCl)c1c(cc(cc1[N+]([O-])=O)C(F)(F)F)[N+]([O-])=O,-5.5968
B-2770,"3,3',5,5'-tetrachlorobiphenyl",UTMWFJSRHLYRPY-UHFFFAOYSA-N,Clc1cc(Cl)cc(c1)c2cc(Cl)cc(Cl)c2,-8.3748
B-2771,"2,3,5,6-tetrachlorobiphenyl",BLAYIQLVUNIICD-UHFFFAOYSA-N,Clc1cc(Cl)c(Cl)c(c2ccccc2)c1Cl,-7.25
B-2773,butralin,SPNQRCTZKIBOAX-UHFFFAOYSA-N,CCC(C)Nc1c(cc(cc1[N+]([O-])=O)C(C)(C)C)[N+]([O-])=O,-5.4703
B-2774,"ethanone, 1-(3,4,5-trihydroxyphenyl)-",IBKQQKPQRYUGBJ-UHFFFAOYSA-N,CC(=O)c1cc(O)c(O)c(O)c1,-1.4711
B-2775,isopropalin,NEKOXWSIMFDGMA-UHFFFAOYSA-N,CCCN(CCC)c1c(cc(cc1[N+]([O-])=O)C(C)C)[N+]([O-])=O,-6.4491