ID,Name,InChIKey,SMILES,Solubility
A-6008,bis(nonylphenyl)amine,NBJDNCGUUVZUIB-UHFFFAOYSA-N,CCCCCCCCCc1cccc(Nc2cccc(CCCCCCCCC)c2)c1,-7.9260469847
A-6010,"ethyl 2-cyano-3,3-diphenylprop-2-enoate",IAJNXBNRYMEYAZ-UHFFFAOYSA-N,CCOC(=O)C(C#N)=C(c1ccccc1)c2ccccc2,-7.7440158853
A-6011,"hexane-1,6-diyl bis[3-(3,5-di-tert-butyl-4-hydroxyphenyl)propanoate]",ZVVFVKJZNVSANF-UHFFFAOYSA-N,CC(C)(C)c1cc(CCC(=O)OCCCCCCOC(=O)CCc2cc(c(O)c(c2)C(C)(C)C)C(C)(C)C)cc(c1O)C(C)(C)C,-8.1064832759
A-6012,"tris(2,4-di-tert-butylphenyl) phosphite",JKIJEFPNVSHHEI-UHFFFAOYSA-N,CC(C)(C)c1ccc(OP(Oc2ccc(cc2C(C)(C)C)C(C)(C)C)Oc3ccc(cc3C(C)(C)C)C(C)(C)C)c(c1)C(C)(C)C,-8.1118919859
A-6013,methyl 3-[[4-(2-bromo-6-chloro-4-nitrophenyl)diazenylphenyl]-(3-methoxy-3-oxopropyl)amino]propanoate,SGXLDQRCIYZKPS-UHFFFAOYSA-N,COC(=O)CCN(CCC(=O)OC)c1ccc(cc1)N=Nc2c(Cl)cc(cc2Br)[N+]([O-])=O,-7.1002216252
A-6014,4-[[2-methoxy-4-[(4-nitrophenyl)azo]phenyl]azo]phenol,HGDFMYGFWUSBQH-UHFFFAOYSA-N,COc1cc(ccc1NN=C2C=CC(=O)C=C2)N=Nc3ccc(cc3)[N+]([O-])=O,-6.9639720065
A-6015,"2-[N-(2-cyanoethyl)-4-[(2,6-dichloro-4-nitrophenyl)azo]anilino]ethyl acetate",ROPYWXVRNREIQD-UHFFFAOYSA-N,CC(=O)OCCN(CCC#N)c1ccc(cc1)N=Nc2c(Cl)cc(cc2Cl)[N+]([O-])=O,-7.0514245951
A-6017,2-tert-butyl-4-[1-(5-tert-butyl-4-hydroxy-2-methylphenyl)butyl]-5-methylphenol,PFANXOISJYKQRP-UHFFFAOYSA-N,CCCC(c1cc(c(O)cc1C)C(C)(C)C)c2cc(c(O)cc2C)C(C)(C)C,-7.9806713528
A-6018,octadecyl 3-{[3-(octadecyloxy)-3-oxopropyl]sulfanyl}propanoate,PWWSSIYVTQUJQQ-UHFFFAOYSA-N,CCCCCCCCCCCCCCCCCCOC(=O)CCSCCC(=O)OCCCCCCCCCCCCCCCCCC,-8.2324757883
A-6019,Tin,ATJFFYVFTNAWJD-UHFFFAOYSA-N,[Sn],-7.4724309721
A-6020,"1,4-bis(2-ethylhexyl) (2Z)-but-2-enedioate",ROPXFXOUUANXRR-YPKPFQOOSA-N,CCCCC(CC)COC(=O)\C=C/C(=O)OCC(CC)CCCC,-6.9758197173
A-6021,"N-{2-[(E)-2-(2-chloro-4,6-dinitrophenyl)diazen-1-yl]-5-(diethylamino)phenyl}acetamide",YREBUQFUGONNSP-UHFFFAOYSA-N,CCN(CC)c1ccc(N=Nc2c(Cl)cc(cc2[N+]([O-])=O)[N+]([O-])=O)c(NC(C)=O)c1,-7.1158852536
A-6022,"sodium; methanolate; 2-methylbenzene-1,3-diamine; methyl 2,3,4,5-tetrachloro-6-cyanobenzoate",VYEKNZNEJZKGRI-UHFFFAOYSA-N,[Na+].C[O-].COC(=O)c1c(Cl)c(Cl)c(Cl)c(Cl)c1C#N.Cc2c(N)cccc2N,-7.1716670448
A-6023,2-[-N-(2-cyanoethyl)-4-[(p-nitrophenyl)azo]anilino]ethyl benzoate,SCLYXZFZPIKFAH-UHFFFAOYSA-N,[O-][N+](=O)c1ccc(cc1)N=Nc2ccc(cc2)N(CCOC(=O)c3ccccc3)CCC#N,-7.1697361359
A-6025,"N-{2-[(E)-2-(2,6-dicyano-4-nitrophenyl)diazen-1-yl]-5-(diethylamino)phenyl}acetamide",LEGWLJGBFZBZSC-UHFFFAOYSA-N,CCN(CC)c1ccc(N=Nc2c(cc(cc2C#N)[N+]([O-])=O)C#N)c(NC(C)=O)c1,-8.1027530485
A-6026,2-methylpropyl dodecanoate,SZFOMJOELAAHAF-UHFFFAOYSA-N,CCCCCCCCCCCC(=O)OCC(C)C,-7.9318475776
A-6027,3-methylbutyl octadec-9-enoate,PHUSOTFVZQDLMC-VAWYXSNFSA-N,CCCCCCCC\C=C\CCCCCCCC(=O)OCCC(C)C,-8.0701647483
A-6029,nonafluorobutane-1-sulfonyl fluoride,LUYQYZLEHLTPBH-UHFFFAOYSA-N,FC(F)(F)C(F)(F)C(F)(F)C(F)(F)[S](F)(=O)=O,-6.0423843487
A-6030,"1,1'-methylenebis(4-fluorobenzene)",DXQVFHQUHOFROC-UHFFFAOYSA-N,Fc1ccc(Cc2ccc(F)cc2)cc1,-6.9121561366
A-6031,"3,3'-[(2-chloro-5-methyl-p-phenylene)bis[imino(1-acetyl-2-oxoethylene)azo]]bis[4-chloro-N-[2-(4-chlorophenoxy)-5-(trifluoromethyl)phenyl]benzamide]",VOCMTGRPDQPZFA-UHFFFAOYSA-N,CC(=O)C(N=Nc1cc(ccc1Cl)C(=O)Nc2cc(ccc2Oc3ccc(Cl)cc3)C(F)(F)F)C(=O)Nc4cc(Cl)c(NC(=O)C(N=Nc5cc(ccc5Cl)C(=O)Nc6cc(ccc6Oc7ccc(Cl)cc7)C(F)(F)F)C(C)=O)cc4C,-7.6916832495
A-6033,"methyl 3-({4-[(E)-2-(2,4-dinitrophenyl)diazen-1-yl]-3-acetamidophenyl}(3-methoxy-3-oxopropyl)amino)propanoate",FIIPIQBWGBRMTN-UHFFFAOYSA-N,COC(=O)CCN(CCC(=O)OC)c1ccc(N=Nc2ccc(cc2[N+]([O-])=O)[N+]([O-])=O)c(NC(C)=O)c1,-7.3328313355
A-6035,"1,3-dibromo-2-(2,3-dibromo-2-methylpropoxy)-5-{2-[3,5-dibromo-4-(2,3-dibromo-2-methylpropoxy)phenyl]propan-2-yl}benzene",IYOVSGHZOIZSDC-UHFFFAOYSA-N,CC(Br)(CBr)COc1c(Br)cc(cc1Br)C(C)(C)c2cc(Br)c(OCC(C)(Br)CBr)c(Br)c2,-7.6864910333
A-6036,"2,4-di-tert-butylphenyl 3,5-di-tert-butyl-4-hydroxybenzoate",KJYSXRBJOSZLEL-UHFFFAOYSA-N,CC(C)(C)c1ccc(OC(=O)c2cc(c(O)c(c2)C(C)(C)C)C(C)(C)C)c(c1)C(C)(C)C,-7.3410901182
A-6037,"N-{2-[(E)-2-(2-bromo-4,6-dinitrophenyl)diazen-1-yl]-5-(diethylamino)phenyl}acetamide",WFFKSTRPZWRBEW-UHFFFAOYSA-N,CCN(CC)c1ccc(N=Nc2c(Br)cc(cc2[N+]([O-])=O)[N+]([O-])=O)c(NC(C)=O)c1,-7.3795692783
A-6038,"2,4-dichlorobenzoyl 2,4-dichlorobenzene-1-carboperoxoate",WRXCBRHBHGNNQA-UHFFFAOYSA-N,Clc1ccc(c(Cl)c1)C(=O)OOC(=O)c2ccc(Cl)cc2Cl,-8.2787650296
A-6039,"2-ethyl-N,N-bis(2-ethylhexyl)hexan-1-amine",BZUDVELGTZDOIG-UHFFFAOYSA-N,CCCCC(CC)CN(CC(CC)CCCC)CC(CC)CCCC,-8.2475792783
A-6040,"2,9-Bis(2-phenylethyl)anthra(2,1,9-def:6,5,10-d'e'f')diisoquinoline-1,3,8,10(2H,9H)-tetrone",IIKSFQIOFHBWSO-UHFFFAOYSA-N,O=C1N(CCc2ccccc2)C(=O)c3ccc4c5ccc6C(=O)N(CCc7ccccc7)C(=O)c8ccc(c9ccc1c3c49)c5c68,-8.4761487948
A-6042,2-heptadecyl-1H-imidazole,YTWBFUCJVWKCCK-UHFFFAOYSA-N,CCCCCCCCCCCCCCCCCc1[nH]ccn1,-7.214642713
A-6043,"sodium; 4-(4-aminophenyl)diazenyl-3-methylaniline; methanolate; methyl 2,3,4,5-tetrachloro-6-cyanobenzoate",DRKWDZRMCXCQPP-UHFFFAOYSA-N,[Na+].C[O-].COC(=O)c1c(Cl)c(Cl)c(Cl)c(Cl)c1C#N.Cc2cc(N)ccc2N=Nc3ccc(N)cc3,-7.5324148718
A-6044,"propane-2,2-diylbis(4,1-phenyleneoxypropane-3,1-diyl) bis(2-methylacrylate)",OPZLDVPRAIERSE-UHFFFAOYSA-N,CC(=C)C(=O)OCCCOc1ccc(cc1)C(C)(C)c2ccc(OCCCOC(=O)C(C)=C)cc2,-7.4564753884
A-6047,"2,2'-[[4-[(3,5-dinitro-2-thienyl)azo]phenyl]imino]bisethyl diacetate",YPNBSXJSFUWYMV-UHFFFAOYSA-N,CC(=O)OCCN(CCOC(C)=O)c1ccc(cc1)N=Nc2sc(cc2[N+]([O-])=O)[N+]([O-])=O,-7.547293505
A-6048,"4,5,6,7-tetrachloro-2-[2-(4,5,6,7-tetrachloro-1,3-dioxo-2,3-dihydro-1H-inden-2-yl)quinolin-8-yl]-2,3-dihydro-1H-isoindole-1,3-dione",ZEHOVWPIGREOPO-UHFFFAOYSA-N,Clc1c(Cl)c(Cl)c2C(=O)C(c3ccc4cccc(N5C(=O)c6c(Cl)c(Cl)c(Cl)c(Cl)c6C5=O)c4n3)C(=O)c2c1Cl,-7.7273960926
A-6049,"2-[[4-(diethylamino)-2-methylphenyl]azo]-5-nitrobenzene-1,3-dicarbonitrile",HCOYTIPJLYJCDR-UHFFFAOYSA-N,CCN(CC)c1ccc(N=Nc2c(cc(cc2C#N)[N+]([O-])=O)C#N)c(C)c1,-7.4728199696
A-6050,"2,3-dihydroxypropyl tetradecanoate",DCBSHORRWZKAKO-UHFFFAOYSA-N,CCCCCCCCCCCCCC(=O)OCC(O)CO,-7.3978753981
A-6051,"3-(5-chloro-1,3-benzoxazol-2-yl)-7-(diethylamino)-2H-chromen-2-one",CBNSBRVOBGWOBM-UHFFFAOYSA-N,CCN(CC)c1ccc2C=C(C(=O)Oc2c1)c3oc4ccc(Cl)cc4n3,-7.4876332175
A-6052,copper(2+) ion 1-[N-(2-oxidophenyl)carboximidoyl]naphthalen-2-olate,QWBAXCFLJDGFPE-UHFFFAOYSA-L,[Cu++].[O-]c1ccccc1N=Cc2c([O-])ccc3ccccc23,-7.4324695381
A-6053,dioxoplumbane,YADSGOSSYOOKMP-UHFFFAOYSA-N,O=[Pb]=O,-7.3256791006
A-6054,"1,2,4-trinonyl benzene-1,2,4-tricarboxylate",ROPPTGKKZZDFJN-UHFFFAOYSA-N,CCCCCCCCCOC(=O)c1ccc(C(=O)OCCCCCCCCC)c(c1)C(=O)OCCCCCCCCC,-6.757182205
A-6055,"triethoxy(2,4,4-trimethylpentyl)silane",UWZSHGZRSZICIW-UHFFFAOYSA-N,CCO[Si](CC(C)CC(C)(C)C)(OCC)OCC,-6.4416841407
A-6056,"(4E)-4-[(5-chloro-2-methylphenyl)hydrazinylidene]-N-[4-[[(4Z)-4-[(5-chloro-2-methylphenyl)hydrazinylidene]-3-oxonaphthalene-2-carbonyl]amino]-2,5-dimethylphenyl]-3-oxonaphthalene-2-carboxamide",QMTATPHFLAXQKR-NNGRHKRUSA-N,Cc1ccc(Cl)cc1N\N=C2\C(=O)C(=Cc3ccccc23)C(=O)Nc4cc(C)c(NC(=O)C5=Cc6ccccc6C(=N/Nc7cc(Cl)ccc7C)/C5=O)cc4C,-7.6781962639
A-6057,"1-({4-[(9,10-dioxo-9,10-dihydroanthracen-1-yl)amino]-6-phenyl-1,3,5-triazin-2-yl}amino)-9,10-dihydroanthracene-9,10-dione",MVIFQPPFCHUSIH-UHFFFAOYSA-N,O=C1c2ccccc2C(=O)c3c(Nc4nc(Nc5cccc6C(=O)c7ccccc7C(=O)c56)nc(n4)c8ccccc8)cccc13,-7.77786597
A-6058,"2-cyano-N-methyl-2-[(1E)-3-(2,4,6-trioxo-1,3-diazinan-5-ylidene)-2,3-dihydro-1H-isoindol-1-ylidene]acetamide",ACUPDOXCXXCPIX-LUAWRHEFSA-N,CNC(=O)/C(C#N)=C/1NC(c2ccccc12)=C3C(=O)NC(=O)NC3=O,-7.5280099033
A-6059,"3-[(E)-2-(4-chloro-2-nitrophenyl)diazen-1-yl]-2-methyl-1H,9H-pyrazolo[3,2-b]quinazolin-9-one",ISLYQRQYGGXHBQ-RCCKNPSSSA-N,CC\1=NN2C(=O)c3ccccc3N=C2C1=N/Nc4ccc(Cl)cc4[N+]([O-])=O,-7.5829344883
A-6060,"5-[3-(2,4,6-trioxo-1,3-diazinan-5-ylidene)-2,3-dihydro-1H-isoindol-1-ylidene]-1,3-diazinane-2,4,6-trione",JSBMGPVJAADXIZ-UHFFFAOYSA-N,O=C1NC(=O)C(C(=O)N1)=C2NC(c3ccccc23)=C4C(=O)NC(=O)NC4=O,-7.5649937324
A-6062,O~15~-acetylretinoic acid,QGNJRVVDBSJHIZ-QHLGVNSISA-N,CC(=O)OC/C=C(C)/C=C/C=C(C)/C=C/C1=C(C)CCCC1(C)C,-7.5165300857
A-6063,O~15~-propionylretinoic acid,SFRPDSKECHTFQA-ONOWFSFQSA-N,CCC(=O)OC/C=C(C)/C=C/C=C(C)/C=C/C1=C(C)CCCC1(C)C,-7.5346897392
A-6065,"manganese, 3-hydroxy-4-[(1-sulfo-2-naphthalenyl)azo]-2-naphthalenecarboxylic acid complex",OERKJBNVFFNQPK-UHFFFAOYSA-L,[H+].[Mn++].[O-]C(=O)c1cc2ccccc2c(N=Nc3ccc4ccccc4c3[S]([O-])(=O)=O)c1[O-],-7.6770043618
A-6068,"1,3-bis(tetradecanoyloxy)propan-2-yl tetradecanoate",DUXYWXYOBMKGIN-UHFFFAOYSA-N,CCCCCCCCCCCCCC(=O)OCC(COC(=O)CCCCCCCCCCCCC)OC(=O)CCCCCCCCCCCCC,-8.6470570009
A-6069,oxoberyllium,LTPBRCUWZOMYOC-UHFFFAOYSA-N,[Be]=O,-7.255116256
A-6070,1-(4-Pentylcyclohexyl)-4-propylbenzene,RXBBPIPXHBOXOU-UHFFFAOYSA-N,CCCCCC1CCC(CC1)c2ccc(CCC)cc2,-6.7725704235
A-6071,"2-(2H-1,2,3-benzotriazol-2-yl)-4,6-bis(2-methylbutan-2-yl)phenol",ZMWRRFHBXARRRT-UHFFFAOYSA-N,CCC(C)(C)c1cc(n2nc3ccccc3n2)c(O)c(c1)C(C)(C)CC,-8.545917916
A-6072,2-[(E)-2-(3-chloro-4-{3-chloro-4-[(E)-2-[1-(hydrazinecarbonyl)-2-oxopropyl]diazen-1-yl]phenyl}phenyl)diazen-1-yl]-3-oxobutanehydrazide,FQUSDVWAPHUPRQ-UHFFFAOYSA-N,CC(=O)C(N=Nc1ccc(c(Cl)c1)c2ccc(N=NC(C(C)=O)C(=O)NN)c(Cl)c2)C(=O)NN,-8.7052973925
A-6074,Vat Orange 11,CVWSULASWLZVCH-UHFFFAOYSA-N,O=C1c2ccccc2C(=O)c3c4[nH]c5c(ccc6C(=O)c7c8[nH]c9c(ccc%10C(=O)c%11ccccc%11C(=O)c9%10)c8ccc7C(=O)c56)c4ccc13,-8.8106451034
A-6075,Aluminum cobalt oxide,CRHLEZORXKQUEI-UHFFFAOYSA-N,[O--].[O--].[O--].[O--].[O--].[Al+3].[Al+3].[Co++].[Co++],-8.4010988426
A-6076,bismuth vanadium tetraoxide,HUUOUJVWIOKBMD-UHFFFAOYSA-N,[O--].[O--].[O--].[O--].[V].[Bi+3],-8.5104350823
A-6078,diiron(3+) ion trioxidandiide,QGPQTSCLUYMZHL-UHFFFAOYSA-N,O.[O--].[O--].[O--].[Fe+3].[Fe+3],-8.2496923157
A-6079,dodecyl 2-methylprop-2-enoate,GMSCBRSQMRDRCD-UHFFFAOYSA-N,CCCCCCCCCCCCOC(=O)C(C)=C,-8.4055410062
A-6080,niobium,GUCVJGMIXFAOAE-UHFFFAOYSA-N,[Nb],-7.9680437622
A-6081,octadecyl 2-methylprop-2-enoate,HMZGPNHSPWNGEP-UHFFFAOYSA-N,CCCCCCCCCCCCCCCCCCOC(=O)C(C)=C,-8.5296561698
A-6085,"1,8-dihydroxy-4-nitro-5-(phenylamino)-9,10-dihydroanthracene-9,10-dione",DYALWCKAJBVSBZ-UHFFFAOYSA-N,Oc1ccc(Nc2ccccc2)c3C(=O)c4c(c(O)ccc4[N+]([O-])=O)C(=O)c13,-8.6461429905
A-6086,sodium 4-hydroxybenzene-1-sulfonate,BYMHXIQVEAYSJD-UHFFFAOYSA-M,[Na+].Oc1ccc(cc1)[S]([O-])(=O)=O,-8.3631893131
A-6087,hexadecyl hexadecanoate,PXDJXZJSCPSGGI-UHFFFAOYSA-N,CCCCCCCCCCCCCCCCOC(=O)CCCCCCCCCCCCCCC,-8.7546500954
A-6088,"4-tert-butyl-2-(5-tert-butyl-2-oxo-2,3-dihydro-1-benzofuran-3-yl)phenyl 3,5-di-tert-butyl-4-hydroxybenzoate",BWBGTUYNAMKJAI-UHFFFAOYSA-N,CC(C)(C)c1ccc2OC(=O)C(c2c1)c3cc(ccc3OC(=O)c4cc(c(O)c(c4)C(C)(C)C)C(C)(C)C)C(C)(C)C,-8.8485126167
A-6089,"2-ethylhexanoic acid, zirconium salt",RIYRDRZNXDRTIL-UHFFFAOYSA-L,[Zr++].CCCCC(CC)C([O-])=O.CCCCC(CC)C([O-])=O,-8.7020121255
A-6091,"3-{2-[(3Z)-5-cyano-1,4-dimethyl-2,6-dioxo-1,2,3,6-tetrahydropyridin-3-ylidene]hydrazin-1-yl}phenyl benzenesulfonate",DGUZPEZCWQVQGW-NKFKGCMQSA-N,CN1C(=O)C(=N/Nc2cccc(O[S](=O)(=O)c3ccccc3)c2)\C(=C(C#N)C1=O)C,-8.7827162194
A-6092,beryllium,ATBAMAFKBVZNFJ-UHFFFAOYSA-N,[Be],-7.2558511787
A-6094,"3-[(2-ethylhexanoyl)oxy]-2,2-bis({[(2-ethylhexanoyl)oxy]methyl})propyl 2-ethylhexanoate",DRRMRHKHTQRWMB-UHFFFAOYSA-N,CCCCC(CC)C(=O)OCC(COC(=O)C(CC)CCCC)(COC(=O)C(CC)CCCC)COC(=O)C(CC)CCCC,-9.2047594175
A-6095,gold,PCHJSUWPFVWCPO-UHFFFAOYSA-N,[Au],-8.8172722155
A-6098,bis(9E)-octadec-9-en-1-yl phosphonate,HBUROESZWYWHFQ-XPWSMXQVSA-N,CCCCCCCC/C=C/CCCCCCCCO[P+](=O)OCCCCCCCC\C=C\CCCCCCCC,-9.5344195865
A-6100,cerium dioxide,CETPSERCERDGAM-UHFFFAOYSA-N,O=[Ce]=O,-9.1459110865
A-6101,"1,2,3,4,5-pentabromo-6-pentabromophenoxybenzene",WHHGLZMJPXIBIX-UHFFFAOYSA-N,Brc1c(Br)c(Br)c(Oc2c(Br)c(Br)c(Br)c(Br)c2Br)c(Br)c1Br,-9.9818960396
A-6105,"1,1'-[iminobis(ethyleneiminoethylene)]bis[3-(octadecenyl)pyrrolidine-2,5-dione]",AIXFPYDWKGOQNL-UHFFFAOYSA-N,CCCCCCCCCCCCCCCCCCC1CC(=O)N(CCNCCNCCNCCN2C(=O)CC(CCCCCCCCCCCCCCCCCC)C2=O)C1=O,-10.2347171749
A-6108,1-(chloromethyl)-4-[4-(chloromethyl)phenyl]benzene,INZDTEICWPZYJM-UHFFFAOYSA-N,ClCc1ccc(cc1)c2ccc(CCl)cc2,-10.098913562
B-1,3-pentyl nitrate,WQZKKVJFBZPJSU-UHFFFAOYSA-N,CCC(CC)O[N+]([O-])=O,-2.4522
B-2,5-bromo-3-hydroxybenzaldehyde,XVFGERBEZKEGSS-UHFFFAOYSA-N,Oc1cc(Br)cc(C=O)c1,-3.2502
B-3,meperidine,WCNLCIJMFAJCPX-UHFFFAOYSA-N,[H+].[Cl-].CCOC(=O)C1(CCN(C)CC1)c2ccccc2,-1.6368
B-4,hydroxyphenamate,WAFIYOULDIWAKR-UHFFFAOYSA-N,CCC(O)(COC(N)=O)c1ccccc1,-0.9227
B-5,lactic acid,JVTAAEKCZFNVCJ-UHFFFAOYSA-N,CC(O)C(O)=O,1.0454
B-6,estradiol,VOXZDWNPVJITMN-ZBRFXRBCSA-N,C[C@]12CC[C@H]3[C@@H](CCc4cc(O)ccc34)[C@@H]1CC[C@@H]2O,-4.8789
B-7,"2,6-dichlorobenzoic acid",MRUDNSFOFOQZDA-UHFFFAOYSA-N,OC(=O)c1c(Cl)cccc1Cl,-1.1309
B-8,"2,3,6-trichlorobenzoic acid",XZIDTOHMJBOSOX-UHFFFAOYSA-N,OC(=O)c1c(Cl)ccc(Cl)c1Cl,-1.4666
B-9,thalidomide,UEJJHQNACJXSKW-UHFFFAOYSA-N,O=C1CCC(N2C(=O)c3ccccc3C2=O)C(=O)N1,-2.6758
B-13,reserpine,QEVHRUUCFGRFIF-MDEJGZGSSA-N,CO[C@H]1[C@@H](C[C@@H]2CN3CCc4c([nH]c5cc(OC)ccc45)[C@H]3C[C@@H]2[C@@H]1C(=O)OC)OC(=O)c6cc(OC)c(OC)c(OC)c6,-3.9208
B-14,niclosamide,RJMUSRYZPJIFPJ-UHFFFAOYSA-N,Oc1ccc(Cl)cc1C(=O)Nc2ccc(cc2Cl)[N+]([O-])=O,-5.3106
B-15,5-hydroxytryptamine,QZAYGJVTTNCVMB-UHFFFAOYSA-N,NCCc1c[nH]c2ccc(O)cc12,-0.945
B-17,"2,4,5-trichlorobenzoic acid",PTFNNDHASFGWFI-UHFFFAOYSA-N,OC(=O)c1cc(Cl)c(Cl)cc1Cl,-2.4446
B-18,"2,4-dichlorobenzoic acid",ATCRIUVQKHMXSH-UHFFFAOYSA-N,OC(=O)c1ccc(Cl)cc1Cl,-2.6003
B-22,5-bromouracil,LQLQRFGHAALLLE-UHFFFAOYSA-N,BrC1=CNC(=O)NC1=O,-2.3698
B-24,adrenaline tartrate (1:1),YLXIPWWIOISBDD-NDAAPVSOSA-N,CNC[C@H](O)c1ccc(O)c(O)c1.O[C@H]([C@@H](O)C(O)=O)C(O)=O,0
B-25,epinephrine,UCTWMZQNUQWSLP-VIFPVBQESA-N,CNC[C@H](O)c1ccc(O)c(O)c1,-3.0077
B-26,propylthiouracil,KNAHARQHSZJURB-UHFFFAOYSA-N,CCCC1=CC(=O)NC(=S)N1,-2.1504
B-28,mechlorethamine,HAWPXGHAZFHHAD-UHFFFAOYSA-N,CN(CCCl)CCCl,-1.1141
B-29,norethindrone acetate,IMONTRJLAWHYGT-ZCPXKWAGSA-N,CC(=O)O[C@]1(CC[C@H]2[C@@H]3CCC4=CC(=O)CC[C@@H]4[C@H]3CC[C@]12C)C#C,-4.8041
B-30,spironolactone,LXMSZDCAJNLERA-ZHYRCANASA-N,CC(=O)S[C@@H]1CC2=CC(=O)CC[C@]2(C)[C@H]3CC[C@@]4(C)[C@@H](CC[C@@]45CCC(=O)O5)[C@H]13,-4.2773
B-31,thiotepa,FOCVUCIESVLUNU-UHFFFAOYSA-N,S=[P](N1CC1)(N2CC2)N3CC3,0.0018
B-33,trichlorfon,NFACJZMKEDPNKN-UHFFFAOYSA-N,CO[P](=O)(OC)C(O)C(Cl)(Cl)Cl,-0.3315
B-34,cysteine,XUJNEKJLAYXESH-UHFFFAOYSA-N,NC(CS)C(O)=O,0.3597
B-36,"o,p'-ddd",JWBOIMRXGHLCPP-UHFFFAOYSA-N,ClC(Cl)C(c1ccc(Cl)cc1)c2ccccc2Cl,-6.5052
B-40,nicotine,SNICXCGAKADSCV-JTQLQIEISA-N,CN1CCC[C@H]1c2cccnc2,0.7898
B-42,"uridine, 2'-deoxy-5-iodo-",XQFRJNBWHJMXHO-UHFFFAOYSA-N,OCC1OC(CC1O)N2C=C(I)C(=O)NC2=O,-2.2481
B-44,4-dimethylamino-3'-methylazobenzene,LVTFSVIRYMXRSR-UHFFFAOYSA-N,CN(C)c1ccc(cc1)N=Nc2cccc(C)c2,-5.7769
B-45,isoflurophate,MUCZHBLJLSDCSD-UHFFFAOYSA-N,CC(C)O[P](F)(=O)OC(C)C,-1.0777
B-46,metacil,HWGBHCRJGXAGEU-UHFFFAOYSA-N,CC1=CC(=O)NC(=S)N1,-2.4259
B-47,4-aminobutyric acid,BTCSSZJGUNDROE-UHFFFAOYSA-N,NCCCC(O)=O,1.1006
B-48,cantharidin,DHZBEENLJMYSHQ-XCVPVQRUSA-N,C[C@@]12[C@H]3CC[C@H](O3)[C@]1(C)C(=O)OC2=O,-3.8156
B-50,adenosine triphosphate,ZKHQWZAMYRWXGA-UHFFFAOYSA-N,Nc1ncnc2n(cnc12)C3OC(CO[P](O)(=O)O[P](O)(=O)O[P](O)(O)=O)C(O)C3O,0.2948
B-51,coumaphos,BXNANOICGRISHX-UHFFFAOYSA-N,CCO[P](=S)(OCC)Oc1ccc2C(=C(Cl)C(=O)Oc2c1)C,-5.3835
B-56,lysine,KDXKERNSBIXSRK-UHFFFAOYSA-N,NCCCCC(N)C(O)=O,0.8351
B-58,glycerophosphoric acid,AWUCVROLDVIAJX-UHFFFAOYSA-N,OCC(O)CO[P](O)(O)=O,0.7643
B-59,3-isothiocyanato-1-propene,ZOJBYZNEUISWFT-UHFFFAOYSA-N,C=CCN=C=S,-1.6953
B-61,"1,1-dimethylhydrazine",RHUYHJGZWVXEHW-UHFFFAOYSA-N,CN(C)N,1.2211
B-63,demerol,XADCESSVHJOZHK-UHFFFAOYSA-N,CCOC(=O)C1(CCN(C)CC1)c2ccccc2,-1.8861
B-64,fructose,BJHIKXHVCXFQLS-UYFOZJQFSA-N,OC[C@@H](O)[C@@H](O)[C@H](O)C(=O)CO,0.6353
B-65,sucrose,CZMRCDWAGMRECN-UGDNZRGBSA-N,OC[C@H]1O[C@H](O[C@]2(CO)O[C@H](CO)[C@@H](O)[C@@H]2O)[C@H](O)[C@@H](O)[C@@H]1O,0.7878
B-66,"1,2-propanediol",DNIAPMSPPWPWGF-UHFFFAOYSA-N,CC(O)CO,1.1186
B-68,ethinyl estradiol,BFPYWIDHMRZLRN-SLHNCBLASA-N,C[C@]12CC[C@H]3[C@@H](CCc4cc(O)ccc34)[C@@H]1CC[C@@]2(O)C#C,-4.4192
B-69,sulfanilyl guanadine,BRBKOPJOKNSWSG-UHFFFAOYSA-N,NC(N)=N[S](=O)(=O)c1ccc(N)cc1,-1.9885
B-70,chlordane,BIWJNBZANLAXMG-UHFFFAOYSA-N,ClC1CC2C(C1Cl)C3(Cl)C(=C(Cl)C2(Cl)C3(Cl)Cl)Cl,-6.8644
B-71,testosterone propionate,PDMMFKSKQVNJMI-BLQWBTBKSA-N,CCC(=O)O[C@H]1CC[C@H]2[C@@H]3CCC4=CC(=O)CC[C@]4(C)[C@H]3CC[C@]12C,-5.3669
B-73,a-estradiol,VOXZDWNPVJITMN-SFFUCWETSA-N,C[C@]12CC[C@H]3[C@@H](CCc4cc(O)ccc34)[C@@H]1CC[C@H]2O,-4.8441
B-74,librium,BUCORZSTKDOEKQ-UHFFFAOYSA-N,CN=C1CN(O)C(=C2C=C(Cl)C=CC2=N1)c3ccccc3,-2.1757
B-75,prochloroperazine,WIKYUJGCLQQFNW-UHFFFAOYSA-N,CN1CCN(CCCN2c3ccccc3Sc4ccc(Cl)cc24)CC1,-4.3979
B-80,nikethamide,NCYVXEGFNDZQCU-UHFFFAOYSA-N,CCN(CC)C(=O)c1cccnc1,0.749
B-81,2-(1h)-quinolinone,LISFMEBWQUVKPJ-UHFFFAOYSA-N,O=C1Nc2ccccc2C=C1,-2.1394
B-82,sulfaquinoxaline,NHZLNPMOSADWGC-UHFFFAOYSA-N,Nc1ccc(cc1)[S](=O)(=O)Nc2cnc3ccccc3n2,-4.6026
B-83,thiamine,MYVIATVLJGTBFV-UHFFFAOYSA-M,[Cl-].Cc1ncc(C[n+]2csc(CCO)c2C)c(N)n1,0.2207
B-84,"1,2-propanediol-3-(2-tolyloxy)",JWDYCNIAQWPBHD-UHFFFAOYSA-N,Cc1ccccc1OCC(O)CO,-1.1887
B-85,3-methyl-4-chlorophenol,CFKMVGJGLGKFKI-UHFFFAOYSA-N,Cc1cc(O)ccc1Cl,-1.5704
B-86,dl-methionine,FFEARJCKVFRZRR-UHFFFAOYSA-N,CSCCC(N)C(O)=O,-0.6593
B-87,"1-propanol, 2,3-dimercapto-",WQABCVAJNWAXTE-UHFFFAOYSA-N,OCC(S)CS,-0.1547
B-88,a-glucose-1-phosphate,HXXFSFRBOHSIMQ-UHFFFAOYSA-N,OCC1OC(O[P](O)(O)=O)C(O)C(O)C1O,0.5848
B-89,n-nitrosomorpholine,ZKXDGKXYMTYWTB-UHFFFAOYSA-N,O=NN1CCOCC1,0.9351
B-90,dopa,WTDRDQBEARUVNC-UHFFFAOYSA-N,NC(Cc1ccc(O)c(O)c1)C(O)=O,-1.5959
B-95,6-aminohexanoic acid,SLXKOJJOQWFEFD-UHFFFAOYSA-N,NCCCCCC(O)=O,0.5854
B-97,acetamide,DLFVBJFMPXGRIB-UHFFFAOYSA-N,CC(N)=O,1.5808
B-98,tetracycline,JYHCQVWYCGHXGP-BPPSBWQWSA-N,CN(C)[C@H]1[C@@H]2C[C@H]3C(=C(O)c4c(O)cccc4[C@@]3(C)O)C(=O)[C@]2(O)C(=O)\C(=C(N)/O)C1=O,-3.284
B-99,dieldrin,DFBKLUNHFCTMDC-UHFFFAOYSA-N,ClC1=C(Cl)C2(Cl)C3C4CC(C5OC45)C3C1(Cl)C2(Cl)Cl,-6.2908
B-100,methotrimeprazine,VRQVVMDWGGWHTJ-CQSZACIVSA-N,COc1ccc2Sc3ccccc3N(C[C@H](C)CN(C)C)c2c1,-4.2155
B-102,mefenamic acid,HYYBABOKPJLUIN-UHFFFAOYSA-N,Cc1cccc(Nc2ccccc2C(O)=O)c1C,-4.0815
B-103,methylene blue,CXKWCBBOMKCUKX-UHFFFAOYSA-M,[Cl-].CN(C)c1ccc2nc3ccc(cc3[s+]c2c1)N(C)C,-0.8655
B-106,chlormerodrin,BJFGVYCULWBXKF-UHFFFAOYSA-M,[Cl-].COC(C[Hg+])CNC(N)=O,-1.5235
B-107,"alanine, 2-methyl-",FUOOLUPWFVMBKG-UHFFFAOYSA-N,CC(C)(N)C(O)=O,0.2453
B-108,cevadine,DBUCFOVFALNEOO-HWBIYQLFSA-N,C/C=C(/C)C(=O)O[C@H]1CC[C@@]2(C)[C@@H]3CC[C@H]4[C@]5(O)C[C@H](O)[C@@]6(O)[C@@H](CN7C[C@@H](C)CC[C@H]7[C@@]6(C)O)[C@]5(O)C[C@]24O[C@]13O,-3.0163
B-110,"fluoroacetic acid, sodium salt",JGFYQVQAXANWJU-UHFFFAOYSA-M,[Na+].[O-]C(=O)CF,1.0452
B-112,arecoline,HJJPJSXJAXAIPN-UHFFFAOYSA-N,COC(=O)C1=CCCN(C)C1,0.8091
B-114,n-methyl o-(3-isopropylphenyl)carbamate,GYKXQTKSWLAUIT-UHFFFAOYSA-N,CNC(=O)Oc1cccc(c1)C(C)C,-3.3567
B-119,morphine sulfate,USAHOPJHPJHUNS-TXCKYYANSA-N,C[NH+]1CC[C@@]23C4Oc5c(O)ccc(C[C@H]1[C@H]2C=C[C@H]4O)c35.C[NH+]6CC[C@@]78C9Oc%10c(O)ccc(C[C@H]6[C@H]7C=C[C@H]9O)c8%10.[O-][S]([O-])(=O)=O,-1.0157
B-120,mebutamate,LEROTMJVBFSIMP-UHFFFAOYSA-N,CCC(C)C(C)(COC(N)=O)COC(N)=O,-2.366
B-121,colchicine,IAKHMKGGTNLKSZ-INIZCTEOSA-N,COC1=CC=C2C(=CC1=O)[C@H](CCc3cc(OC)c(OC)c(OC)c23)NC(C)=O,-0.9482
B-122,pyridoxal hydrochloride,FCHXJFJNDJXENQ-UHFFFAOYSA-N,[H+].[Cl-].Cc1ncc(CO)c(C=O)c1O,0.3901
B-124,"3,5-diiodotyrosine",NYPYHUZRZVSYKL-ZETCQYMHSA-N,N[C@@H](Cc1cc(I)c(O)c(I)c1)C(O)=O,-2.8583
B-125,o-phenanthroline,DGEZNRSVGBDHLK-UHFFFAOYSA-N,c1cnc2c(c1)ccc3cccnc23,-1.826
B-126,pyridoxal,RADKZDMFGJYCBB-UHFFFAOYSA-N,Cc1ncc(CO)c(C=O)c1O,0.4758
B-128,nihydrazone,ACFHHZJOAUZSJU-XBXARRHUSA-N,CC(=O)N/N=C/c1oc(cc1)[N+]([O-])=O,-2.5958
B-131,acetone,CSCPPACGZOOCGX-UHFFFAOYSA-N,CC(C)=O,1.236
B-132,dimethyl sulfoxide,IAZDPXIOMUYVGZ-UHFFFAOYSA-N,C[S](C)=O,1.1072
B-135,norethindrone,VIKNJXKGJWUCNN-XGXHKTLJSA-N,C[C@]12CC[C@H]3[C@@H](CCC4=CC(=O)CC[C@H]34)[C@@H]1CC[C@@]2(O)C#C,-4.6271
B-137,hypoxanthine,FDGQSTZJBFJUBT-UHFFFAOYSA-N,O=C1N=CNc2nc[nH]c12,-2.2888
B-140,maltose,GUBGYTABKSRVRQ-UHFFFAOYSA-N,OCC1OC(OC2C(O)C(O)C(O)OC2CO)C(O)C(O)C1O,0.3577
B-142,hexachlorophene,ACGUYXCXAPNIKK-UHFFFAOYSA-N,Oc1c(Cl)cc(Cl)c(Cl)c1Cc2c(O)c(Cl)cc(Cl)c2Cl,-3.4634