ID,Name,InChIKey,SMILES,Solubility
A-4628,tetraethyl silicate,BOTDANWDWHJENH-UHFFFAOYSA-N,CCO[Si](OCC)(OCC)OCC,-2.1455655454
A-4629,3-methyl-2-[(2E)-pent-2-en-1-yl]cyclopent-2-en-1-one,XMLSXPIVAXONDL-PLNGDYQASA-N,CC\C=C/CC1=C(C)CCC1=O,-2.0452383746
A-4630,2-chlorobenzaldehyde,FPYUJUBAXZAQNL-UHFFFAOYSA-N,Clc1ccccc1C=O,-1.9805722205
A-4631,2-(butan-2-yl)phenol,NGFPWHGISWUQOI-UHFFFAOYSA-N,CCC(C)c1ccccc1O,-2.0123777929
A-4634,"2,2'-(octylimino)diethanol",QZQNMMLYACBCMJ-UHFFFAOYSA-N,CCCCCCCCN(CCO)CCO,-2.1910376032
A-4639,5-nitroisophthalic acid,NBDAHKQJXVLAID-UHFFFAOYSA-N,OC(=O)c1cc(cc(c1)[N+]([O-])=O)C(O)=O,-2.178419855
A-4641,"sodium 1-amino-9,10-dihydro-4-[[4-[[(4-methylphenyl)sulphonyl]oxy]phenyl]amino]-9,10-dioxoanthracene-2-sulphonate",YNYQQXPCRFXFIH-UHFFFAOYSA-M,[Na+].Cc1ccc(cc1)[S](=O)(=O)Oc2ccc(Nc3cc(c(N)c4C(=O)c5ccccc5C(=O)c34)[S]([O-])(=O)=O)cc2,-2.6221984752
A-4642,ethyl [(4-methylphenyl)sulfonyl]carbamate,DFWQXANLGSXMKF-UHFFFAOYSA-N,CCOC(=O)N[S](=O)(=O)c1ccc(C)cc1,-2.2430987475
A-4644,calcium bis(2-methyloctanoate),QSSGIYRIEKPVTG-UHFFFAOYSA-L,[Ca++].CCCCCCCCC([O-])=O.CCCCCCCCC([O-])=O,-2.412949573
A-4645,(diethoxymethoxy)ethane,GKASDNZWUGIAMG-UHFFFAOYSA-N,CCOC(OCC)OCC,-2.040520296
A-4647,lithium(1+) ion fluoride,PQXKHYXIUOZZFA-UHFFFAOYSA-M,[Li+].[F-],-1.2901015882
A-4648,"N,N-dimethylnonanamide",DMLHJLWUADABON-UHFFFAOYSA-N,CCCCCCCCC(=O)N(C)C,-2.1440495587
A-4649,1-isocyanato-4-(4-isocyanato-3-methylphenyl)-2-methylbenzene,ICLCCFKUSALICQ-UHFFFAOYSA-N,Cc1cc(ccc1N=C=O)c2ccc(N=C=O)c(C)c2,-2.308127519
A-4652,4-phenylbut-3-en-2-one,BWHOZHOGCMHOBV-BQYQJAHWSA-N,CC(=O)\C=C\c1ccccc1,-2.050971343
A-4654,"5-(4-hydroxyphenyl)imidazolidine-2,4-dione",UMTNMIARZPDSDI-UHFFFAOYSA-N,Oc1ccc(cc1)C2NC(=O)NC2=O,-2.1731049195
A-4655,sodium 2-(dodecanoyloxy)ethanesulfonate,BRMSVEGRHOZCAM-UHFFFAOYSA-M,[Na+].CCCCCCCCCCCC(=O)OCC[S]([O-])(=O)=O,-2.4084792453
A-4658,2-[(4-amino-2-nitrophenyl)amino]ethan-1-ol,GZGZVOLBULPDFD-UHFFFAOYSA-N,Nc1ccc(NCCO)c(c1)[N+]([O-])=O,-2.1910899756
A-4659,4-methyl-4-phenylpentan-2-ol,NCYQVRNLBAYSLE-UHFFFAOYSA-N,CC(O)CC(C)(C)c1ccccc1,-2.1472867242
A-4661,naphthalen-1-ol,KJCVRFUGPWSIIH-UHFFFAOYSA-N,Oc1cccc2ccccc12,-2.0619739225
A-4662,"2,3-dichloroaniline",BRPSAOUFIJSKOT-UHFFFAOYSA-N,Nc1cccc(Cl)c1Cl,-2.1303847013
A-4663,5-chloro-2-methylaniline,WRZOMWDJOLIVQP-UHFFFAOYSA-N,Cc1ccc(Cl)cc1N,-2.0718850743
A-4664,N-acetyl-N-[2-(N-acetylacetamido)ethyl]acetamide,BGRWYDHXPHLNKA-UHFFFAOYSA-N,CC(=O)N(CCN(C(C)=O)C(C)=O)C(C)=O,-2.2792257347
A-4665,"[9-methyl-6-(propan-2-yl)-1,4-dioxaspiro[4.5]decan-2-yl]methanol",ZBJCYZPANVLBRK-UHFFFAOYSA-N,CC(C)C1CCC(C)CC12OCC(CO)O2,-2.2793855347
A-4666,"disodium 5,5'-[propane-2,2-diylbis(4,1-phenyleneoxysulfonyl-2,1-phenylenediazene-2,1-diyl)]bis(6-amino-4-hydroxynaphthalene-2-sulfonate)",DCWBGUSTCFJTDR-UHFFFAOYSA-N,[Na+].[Na+].CC(C)(c1ccc(O[S](=O)(=O)c2cccc(NNC3=C4C(=O)C=C(C=C4C=CC3=N)[S](O)(=O)=O)c2)cc1)c5ccc(O[S](=O)(=O)c6cccc(NNC7=C8C(=O)C=C(C=C8C=CC7=N)[S](O)(=O)=O)c6)cc5,-2.9562873167
A-4667,ethyl 2-phenylacetate,DULCUDSUACXJJC-UHFFFAOYSA-N,CCOC(=O)Cc1ccccc1,-2.1362024863
A-4668,nitrogen oxide,GQPLMRYTRLFLPF-UHFFFAOYSA-N,[N-]=[N+]=O,-1.5643997258
A-4669,"sodium 1-amino-4-({3-[(2-hydroxyethyl)sulfamoyl]-4,5-dimethylphenyl}amino)-9,10-dioxo-9,10-dihydroanthracene-2-sulfonate",MHHGZCMFNNAVCQ-UHFFFAOYSA-M,[Na+].Cc1cc(Nc2cc(c(N)c3C(=O)c4ccccc4C(=O)c23)[S]([O-])(=O)=O)cc(c1C)[S](=O)(=O)NCCO,-2.6748435421
A-4671,2-butyl-4-chloro-1H-imidazole-5-carbaldehyde,JLVIHQCWASNXCK-UHFFFAOYSA-N,CCCCc1[nH]c(Cl)c(C=O)n1,-2.1991273723
A-4676,(3Z)-hex-3-en-1-yl acetate,NPFVOOAXDOBMCE-PLNGDYQASA-N,CC\C=C/CCOC(C)=O,-2.111500803
A-4678,"1-butyl-6-hydroxy-4-methyl-2-oxo-1,2-dihydropyridine-3-carbonitrile",JSCJSXHNBIXPBU-UHFFFAOYSA-N,CCCCN1C(=O)C=C(C)C(=C1O)C#N,-2.2729907436
A-4679,2-methoxy-4-propylphenol,PXIKRTCSSLJURC-UHFFFAOYSA-N,CCCc1ccc(O)c(OC)c1,-2.1792905928
A-4680,"3,4-dichlorobut-1-ene",XVEASTGLHPVZNA-UHFFFAOYSA-N,ClCC(Cl)C=C,-2.0555103791
A-4682,trilithium(1+) ion hexafluoroalumanetriuide,VRSRNLHMYUACMN-UHFFFAOYSA-H,[Li+].[Li+].[Li+].[F-].[F-].[F-].[F-].[F-].[F-].[Al+3],-2.1675670427
A-4683,1-octylpyrrolidin-2-one,WPPOGHDFAVQKLN-UHFFFAOYSA-N,CCCCCCCCN1CCCC1=O,-2.2577490108
A-4684,(E)-N-(5-methylheptan-3-ylidene)hydroxylamine,CBVWMGCJNPPAAR-CMDGGOBGSA-N,CCC(C)C\C(CC)=N\O,-2.1307281267
A-4685,"N,N-dimethyl-3,3-diphenyloxolan-2-iminium bromide",QJPXLCQSAFQCBD-UHFFFAOYSA-M,[Br-].C[N+](C)=C1OCCC1(c2ccccc2)c3ccccc3,-2.5265751338
A-4688,"2-bromo-3,3,3-trifluoroprop-1-ene",QKBKGNDTLQFSEU-UHFFFAOYSA-N,FC(F)(F)C(Br)=C,-2.2385851258
A-4689,3-(4-methoxyphenyl)-2-methylpropanal,VLFBSPUPYFTTNF-UHFFFAOYSA-N,COc1ccc(CC(C)C=O)cc1,-2.24666187
A-4690,"N-(2,4,4-trimethylpentan-2-yl)prop-2-enamide",YRDNVESFWXDNSI-UHFFFAOYSA-N,CC(C)(C)CC(C)(C)NC(=O)C=C,-2.2588292445
A-4691,"1,1,1,2-tetrafluoroethane",LVGUZGTVOIAKKC-UHFFFAOYSA-N,FCC(F)(F)F,-2.0087278867
A-4695,2-amino-5-chloro-4-methylbenzene-1-sulfonic acid,VYZCFAPUHSSYCC-UHFFFAOYSA-N,Cc1cc(N)c(cc1Cl)[S](O)(=O)=O,-2.3456971252
A-4699,ethyl 3-methyl-3-phenyloxirane-2-carboxylate,LQKRYVGRPXFFAV-UHFFFAOYSA-N,CCOC(=O)C1OC1(C)c2ccccc2,-2.3143750058
A-4700,molybdenum trioxide,JKQOBWVOAYFWKG-UHFFFAOYSA-N,O=[Mo](=O)=O,-2.1581724467
A-4701,"sodium 1-amino-9,10-dioxo-4-[(3-propanamidophenyl)amino]-9,10-dihydroanthracene-2-sulfonate",XYOLLVHQNKFTLW-UHFFFAOYSA-M,[Na+].CCC(=O)Nc1cccc(Nc2cc(c(N)c3C(=O)c4ccccc4C(=O)c23)[S]([O-])(=O)=O)c1,-2.6879470025
A-4703,4-chloro-2-(trifluoromethyl)aniline,CVINWVPRKDIGLL-UHFFFAOYSA-N,Nc1ccc(Cl)cc1C(F)(F)F,-2.2934813757
A-4704,bis(trimethylsilyl)amine,FFUAGWLWBBFQJT-UHFFFAOYSA-N,C[Si](C)(C)N[Si](C)(C)C,-2.2100723772
A-4707,2-tert-butylphenol,WJQOZHYUIDYNHM-UHFFFAOYSA-N,CC(C)(C)c1ccccc1O,-2.1899589144
A-4709,"2,6-dimethyloct-7-en-2-ol",XSNQECSCDATQEL-UHFFFAOYSA-N,CC(CCCC(C)(C)O)C=C,-2.2212072407
A-4711,"3-(2H-1,3-benzodioxol-5-yl)-2-methylpropanal",BOPPSUHPZARXTH-UHFFFAOYSA-N,CC(Cc1ccc2OCOc2c1)C=O,-2.3134381403
A-4712,2-chlorobutane,BSPCSKHALVHRSR-UHFFFAOYSA-N,CCC(C)Cl,-2.0012638712
A-4713,palladium(2+) ion diacetate,YJVFFLUZDVXJQI-UHFFFAOYSA-L,[Pd++].CC([O-])=O.CC([O-])=O,-2.3865009
A-4714,4-methyl-2-(2-methylprop-1-en-1-yl)oxane,CZCBTSFUTPZVKJ-UHFFFAOYSA-N,CC1CCOC(C1)C=C(C)C,-2.2244457918
A-4715,2-ethylhexan-1-ol,YIWUKEYIRIRTPP-UHFFFAOYSA-N,CCCCC(CC)CO,-2.1604718659
A-4716,6-methyloct-5-en-2-one,SAXWRVSDVXCTEL-SOFGYWHQSA-N,CC\C(C)=C\CCC(C)=O,-2.1925860364
A-4717,sodium 4-[[4-[(4-hydroxy-2-methylphenyl)azo]phenyl]amino]-3-nitrobenzenesulphonate,QUMZGFZWXKDQFW-GDHRODDYSA-M,[Na+].CC/1=CC(=O)C=CC1=N/Nc2ccc(Nc3ccc(cc3[N+]([O-])=O)[S]([O-])(=O)=O)cc2,-2.6993635863
A-4718,"furan-2,5-dicarboxylic acid",CHTHALBTIRVDBM-UHFFFAOYSA-N,OC(=O)c1oc(cc1)C(O)=O,-2.2396237358
A-4720,"2,3-dichlorobenzoic acid",QAOJBHRZQQDFHA-UHFFFAOYSA-N,OC(=O)c1cccc(Cl)c1Cl,-2.3316729189
A-4722,2-amino-4-chloro-5-methylbenzenesulfonic acid,VRLPHBSFRWMMPW-UHFFFAOYSA-N,Cc1cc(c(N)cc1Cl)[S](O)(=O)=O,-2.4061778726
A-4724,N-(2-chlorophenyl)-3-oxobutanamide,BFVHBHKMLIBQNN-UHFFFAOYSA-N,CC(=O)CC(=O)Nc1ccccc1Cl,-2.4065360765
A-4725,4-bromophenyl acetate,XEXHCQJRVMVJMY-UHFFFAOYSA-N,CC(=O)Oc1ccc(Br)cc1,-2.4166041571
A-4730,"2,4-diethyl-3-propylpentane-1,5-diol; 2,4-diethyloctan-1-ol; 2-ethylhexan-1-ol; 2-ethylhexane-1,3-diol",XVOPVUDUALAJCP-UHFFFAOYSA-N,CCCCC(CC)CO.CCCCC(CC)CC(CC)CO.CCCC(O)C(CC)CO.CCCC(C(CC)CO)C(CC)CO,-2.9252846689
A-4732,"naphthalene-1,8-diamine",YFOOEYJGMMJJLS-UHFFFAOYSA-N,Nc1cccc2cccc(N)c12,-2.3071228572
A-4736,"buta-1,3-diene",KAKZBPTYRLMSJV-UHFFFAOYSA-N,C=CC=C,-1.8668457003
A-4737,2-nitro-4-(trifluoromethyl)benzonitrile,BQCWLXXZTCLGSZ-UHFFFAOYSA-N,[O-][N+](=O)c1cc(ccc1C#N)C(F)(F)F,-2.4707735629
A-4740,"6,8,9-trinitro-2,4-dioxa-3-plumbabicyclo[3.3.1]nona-1(9),5,7-triene",WETZJIOEDGMBMA-UHFFFAOYSA-L,[Pb++].[O-]c1c(cc(c([O-])c1[N+]([O-])=O)[N+]([O-])=O)[N+]([O-])=O,-2.8083913688
A-4741,2-ethylhex-2-enal,PYLMCYQHBRSDND-SOFGYWHQSA-N,CCC\C=C(/CC)C=O,-2.2559578736
A-4742,2-ethylhexanal,LGYNIFWIKSEESD-UHFFFAOYSA-N,CCCCC(CC)C=O,-2.2628407967
A-4743,"3,5,5-trimethylhexanoic acid",OILUAKBAMVLXGF-UHFFFAOYSA-N,CC(CC(O)=O)CC(C)(C)C,-2.3542209788
A-4744,"3-oxo-N-(2-oxo-2,3-dihydro-1H-1,3-benzodiazol-5-yl)butanamide",VEMDQCGHZNXORX-UHFFFAOYSA-N,CC(=O)CC(=O)Nc1ccc2NC(=O)Nc2c1,-2.522680786
A-4746,"5-amino-2,3-dihydro-1H-1,3-benzodiazol-2-one",BCXSVFBDMPSKPT-UHFFFAOYSA-N,Nc1ccc2NC(=O)Nc2c1,-2.3347829023
A-4750,"2-butyl-4,4,6-trimethyl-1,3-dioxane",QUBNQDBPPTZYJL-UHFFFAOYSA-N,CCCCC1OC(C)CC(C)(C)O1,-2.4532973596
A-4751,2-methyl-1-phenylpropan-1-one,BSMGLVDZZMBWQB-UHFFFAOYSA-N,CC(C)C(=O)c1ccccc1,-2.35661526
A-4754,3-amino-2-hydroxy-5-nitrobenzoic acid,JFTUSFFYSRNFBA-UHFFFAOYSA-N,Nc1cc(cc(C(O)=O)c1O)[N+]([O-])=O,-2.4907790333
A-4755,diamminedichloropalladium,WIEZTXFTOIBIOC-UHFFFAOYSA-L,N.N.[Cl-].[Cl-].[Pd++],-2.5257397803
A-4756,"trimethoxy(3,3,4,4,5,5,6,6,7,7,8,8,8-tridecafluorooctyl)silane",BVQYIDJXNYHKRK-UHFFFAOYSA-N,CO[Si](CCC(F)(F)C(F)(F)C(F)(F)C(F)(F)C(F)(F)C(F)(F)F)(OC)OC,-2.8923562141
A-4757,"4-amino-5-methoxy-N,2-dimethylbenzenesulfonamide",GWSQAGVGSHXRJK-UHFFFAOYSA-N,CN[S](=O)(=O)c1cc(OC)c(N)cc1C,-2.5769433589
A-4758,4-tert-butylphenol,QHPQWRBYOIRBIT-UHFFFAOYSA-N,CC(C)(C)c1ccc(O)cc1,-2.3914008137
A-4762,"2,3,4-trichlorobut-1-ene",WZUZDBPJFHQVJC-UHFFFAOYSA-N,ClCC(Cl)C(Cl)=C,-2.4244542069
A-4764,ethyl 2-methylbutanoate,HCRBXQFHJMCTLF-UHFFFAOYSA-N,CCOC(=O)C(C)CC,-2.3364163689
A-4767,4-tert-butylcyclohexan-1-one,YKFKEYKJGVSEIX-UHFFFAOYSA-N,CC(C)(C)C1CCC(=O)CC1,-2.4173816076
A-4768,"(1S-endo)-1,7,7-trimethylbicyclo[2.2.1]heptan-2-ol",DTGKSKDOIYIVQL-NQMVMOMDSA-N,CC1(C)[C@@H]2CC[C@]1(C)[C@H](O)C2,-2.4205583952
A-4769,"3,4-dichloroaniline",SDYWXFYBZPNOFX-UHFFFAOYSA-N,Nc1ccc(Cl)c(Cl)c1,-2.4461379538
A-4770,magnesium hydrogenorthophosphate,MHJAJDCZWVHCPF-UHFFFAOYSA-L,[Mg++].O[P]([O-])([O-])=O,0.2641880223
A-4771,"1,6-bis[2-(2-butoxyethoxy)ethyl] hexanedioate",SCABKEBYDRTODC-UHFFFAOYSA-N,CCCCOCCOCCOC(=O)CCCCC(=O)OCCOCCOCCCC,-2.8821848864
A-4775,1-methoxy-4-methylbenzene,CHLICZRVGGXEOD-UHFFFAOYSA-N,COc1ccc(C)cc1,-2.3395421013
A-4776,N-[3-(morpholin-4-yl)propyl]naphthalen-1-amine,AFZZFBZPHUDOLV-UHFFFAOYSA-N,C(CNc1cccc2ccccc12)CN3CCOCC3,-2.702803349
A-4778,2-phenylphenol,LLEMOWNGBBNAJR-UHFFFAOYSA-N,Oc1ccccc1c2ccccc2,-2.5067117536
A-4779,2-(2-methylbutan-2-yl)phenol,BGRKGHSKCFAPCL-UHFFFAOYSA-N,CCC(C)(C)c1ccccc1O,-2.4912242204
A-4780,trimethoxy-(6-trimethoxysilylhexyl)silane,GFKCWAROGHMSTC-UHFFFAOYSA-N,CO[Si](CCCCCC[Si](OC)(OC)OC)(OC)OC,-2.7929479843
A-4782,"[(1S,2S,3S,5R)-2,6,6-trimethylbicyclo[3.1.1]heptan-3-yl]methanamine",MUOITVAMHSVXLO-IMSYWVGJSA-N,C[C@@H]1[C@@H](CN)C[C@H]2C[C@@H]1C2(C)C,-2.5159153811
A-4785,"2,6-dimethylhept-5-enal",YGFGZTXGYTUXBA-UHFFFAOYSA-N,CC(CCC=C(C)C)C=O,-2.4478585415
A-4786,2-({2-[bis(carboxymethyl)amino]ethyl}(carboxymethyl)amino)acetic acid,KCXVZYZYPLLWCC-UHFFFAOYSA-N,OC(=O)CN(CCN(CC(O)=O)CC(O)=O)CC(O)=O,-2.7667755992
A-4787,6'-methoxycinchonan-9-ol,LOUPRKONTZGTKE-VOMFEXJBSA-N,COc1ccc2nccc([C@@H](O)[C@@H]3CC4CCN3C[C@@H]4C=C)c2c1,-2.8121429703
A-4788,6'-methoxycinchonan-9-ol,LOUPRKONTZGTKE-LHHVKLHASA-N,COc1ccc2nccc([C@H](O)[C@H]3C[C@@H]4CCN3C[C@@H]4C=C)c2c1,-2.8121429703
A-4790,N-dodecanoyl-N-methylglycine,BACYUWVYYTXETD-UHFFFAOYSA-N,CCCCCCCCCCCC(=O)N(C)CC(O)=O,-2.7346414392
A-4792,isobutyl 2-chloropropanoate,AEEGJNJYJCGJFZ-LURJTMIESA-N,CC(C)COC(=O)[C@H](C)Cl,-2.5175442498
A-4795,(2E)-2-methyl-3-phenylprop-2-enal,VLUMOWNVWOXZAU-CLFYSBASSA-N,C/C(C=O)=C/c1ccccc1,-2.4747186153
A-4798,4-methylene-2-(2-methylprop-1-en-1-yl)tetrahydro-2H-pyran,JRIATCFPZFOVNP-UHFFFAOYSA-N,CC(C)=CC1CC(=C)CCO1,-2.5104223592
A-4801,ethyl 2-methylpentanoate,HZPKNSYIDSNZKW-UHFFFAOYSA-N,CCCC(C)C(=O)OCC,-2.4896905423
A-4802,tert-butyl methacrylate,SJMYWORNLPSJQO-UHFFFAOYSA-N,CC(=C)C(=O)OC(C)(C)C,-2.4863755076
A-4803,1-(ethenyloxy)butane,UZKWTJUDCOPSNM-UHFFFAOYSA-N,CCCCOC=C,-2.3379408202
A-4807,N-butylbenzenesulfonamide,IPRJXAGUEGOFGG-UHFFFAOYSA-N,CCCCN[S](=O)(=O)c1ccccc1,-2.6757824138
A-4808,"2,2,6-trimethyl-6-vinyltetrahydro-2H-pyran",NETOHYFTCONTDT-UHFFFAOYSA-N,CC1(C)CCCC(C)(O1)C=C,-2.5359872782
A-4810,"2,3,3-trimethyl-3H-indole-5-carboxylic acid",QUDAPQXQGBIUAR-UHFFFAOYSA-N,CC1=Nc2ccc(cc2C1(C)C)C(O)=O,-2.6625890537
A-4812,2-methylcyclohexyl acetate,AKIIJALHGMKJEJ-UHFFFAOYSA-N,CC1CCCCC1OC(C)=O,-2.5502978569
A-4815,1-chloro-2-nitrobenzene,BFCFYVKQTRLZHA-UHFFFAOYSA-N,[O-][N+](=O)c1ccccc1Cl,-2.5639664909
A-4816,2-ethylhexyl 2-hydroxypropanoate,FECDACOUYKFOOP-UHFFFAOYSA-N,CCCCC(CC)COC(=O)C(C)O,-2.6735257097
A-4817,bromobenzene,QARVLSVVCXYDNA-UHFFFAOYSA-N,Brc1ccccc1,-2.568561457
A-4819,trisodium hexafluoroalumanetriuide,REHXRBDMVPYGJX-UHFFFAOYSA-H,[F-].[F-].[F-].[F-].[F-].[F-].[Na+].[Na+].[Na+].[Al+3],-2.6988459025
A-4821,1-methyl-4-nitrobenzene,ZPTVNYMJQHSSEA-UHFFFAOYSA-N,Cc1ccc(cc1)[N+]([O-])=O,-2.5149437885
A-4822,2-methoxy-4-(prop-2-en-1-yl)phenyl acetate,SCCDQYPEOIRVGX-UHFFFAOYSA-N,COc1cc(CC=C)ccc1OC(C)=O,-2.7015911491
A-4823,2-methylbut-2-ene,BKOOMYPCSUNDGP-UHFFFAOYSA-N,CC=C(C)C,-2.2331509446
A-4824,"[(2S,4R)-2-(2,4-dichlorophenyl)-2-(1H-1,2,4-triazol-1-ylmethyl)-1,3-dioxolan-4-yl]methanol",NKUOWQPBYUKRIM-ZWNOBZJWSA-N,OC[C@@H]1CO[C@](Cn2cncn2)(O1)c3ccc(Cl)cc3Cl,-2.9059550684
A-4825,butyl 2-methylprop-2-enoate,SOGAXMICEFXMKE-UHFFFAOYSA-N,CCCCOC(=O)C(C)=C,-2.5443674546
A-4826,Neohesperidin dihydrochalone,ITVGXXMINPYUHD-CUVHLRMHSA-N,COc1ccc(CCC(=O)c2c(O)cc(O[C@@H]3O[C@H](CO)[C@@H](O)[C@H](O)[C@H]3O[C@@H]4O[C@@H](C)[C@H](O)[C@@H](O)[C@H]4O)cc2O)cc1O,-3.1851035311
A-4828,"3,5,5-trimethylhexan-1-ol",BODRLKRKPXBDBN-UHFFFAOYSA-N,CC(CCO)CC(C)(C)C,-2.5570799155
A-4829,5-chloro-2-nitrophenol,MZDBQSFPAMTTIS-UHFFFAOYSA-N,Oc1cc(Cl)ccc1[N+]([O-])=O,-2.6373771386
A-4830,chlorobenzene,MVPPADPHJFYWMZ-UHFFFAOYSA-N,Clc1ccccc1,-2.4493202347
A-4831,"ethyl 1,3-dioxo-1,3-dihydro-2H-isoindole-2-carboxylate",VRHAQNTWKSVEEC-UHFFFAOYSA-N,CCOC(=O)N1C(=O)c2ccccc2C1=O,-2.7387726333
A-4835,3-methyl-5-phenylpentan-1-ol,OXYRENDGHPGWKV-UHFFFAOYSA-N,CC(CCO)CCc1ccccc1,-2.6600258381
A-4836,"N-decyl-N,N-dimethyldecan-1-aminium chloride",RUPBZQFQVRMKDG-UHFFFAOYSA-M,[Cl-].CCCCCCCCCC[N+](C)(C)CCCCCCCCCC,-2.9677471262
A-4837,1-[bis(4-fluorophenyl)methyl]piperazine,TTXIFFYPVGWLSE-UHFFFAOYSA-P,Fc1ccc(cc1)C([NH+]2CC[NH2+]CC2)c3ccc(F)cc3,-2.8786010762
A-4839,"(phosphonooxy)phosphonic acid; 1,3,5-triazine-2,4,6-triamine",XZTOTRSSGPPNTB-UHFFFAOYSA-N,Nc1nc(N)nc(N)n1.O[P](O)(=O)O[P](O)(O)=O,-2.9089794399
A-4842,2-[(4-methyl-2-nitrophenyl)amino]ethan-1-ol,SCZQUWZLEIYDBD-UHFFFAOYSA-N,Cc1ccc(NCCO)c(c1)[N+]([O-])=O,-2.7474051676
A-4845,(ethenyloxy)cyclohexane,VGIYPVFBQRUBDD-UHFFFAOYSA-N,C=COC1CCCCC1,-2.5825419737
A-4846,"1,4-bis(vinyloxy)butane",MWZJGRDWJVHRDV-UHFFFAOYSA-N,C=COCCCCOC=C,-2.6477435098
A-4849,6-amino-4-hydroxynaphthalene-2-sulfonic acid,HBZVNWNSRNTWPS-UHFFFAOYSA-N,Nc1ccc2cc(cc(O)c2c1)[S](O)(=O)=O,-2.8833112394
A-4851,"disodium 4,5-dichloro-2-[(E)-2-[3-methyl-5-oxo-1-(3-sulfonatophenyl)-4,5-dihydro-1H-pyrazol-4-yl]diazen-1-yl]benzene-1-sulfonate",NPHMJNPFGARTFL-UHFFFAOYSA-L,[Na+].[Na+].CC1=NN(c2cccc(c2)[S]([O-])(=O)=O)C(=O)C1N=Nc3cc(Cl)c(Cl)cc3[S]([O-])(=O)=O,-3.2642643745
A-4852,"1,2,3,4-tetrahydronaphthalene; 1,3,5-trimethylbenzene; 1,4-diethylbenzene; 1H-indene; 2,3-dihydro-1H-indene; benzene; naphthalene; propan-2-ylbenzene; toluene",ZVBGUWYOZNSIJF-UHFFFAOYSA-N,CCc1ccc(CC)cc1.CC(C)c2ccccc2.Cc3ccccc3.Cc4cc(C)cc(C)c4.C5CCc6ccccc6C5.C7Cc8ccccc8C7.C9C=Cc%10ccccc9%10.c%11ccccc%11.c%12ccc%13ccccc%13c%12,-3.5397404208
A-4853,"1,3-xylene; cyclopentane; ethylbenzene; pentane; toluene",KXUYVAICGNQKKK-UHFFFAOYSA-N,CCCCC.CCc1ccccc1.Cc2ccccc2.Cc3cccc(C)c3.C4CCCC4,-3.1729559438
A-4854,"2-phenyl-1H-1,3-benzodiazole-5-sulfonic acid",UVCJGUGAGLDPAA-UHFFFAOYSA-N,O[S](=O)(=O)c1ccc2nc([nH]c2c1)c3ccccc3,-2.9611061362
A-4858,benzene; ethenylbenzene; toluene,MHNCXEKWIFKKSF-UHFFFAOYSA-N,Cc1ccccc1.C=Cc2ccccc2.c3ccccc3,-2.9612739311
A-4860,manganese(2+) ion oxalate,RGVLTEMOWXGQOS-UHFFFAOYSA-L,[Mn++].[O-]C(=O)C([O-])=O,-2.6780811331
A-4862,trilithium(1+) ion phosphate,TWQULNDIKKJZPH-UHFFFAOYSA-K,[Li+].[Li+].[Li+].[O-][P]([O-])([O-])=O,-2.5909258566
A-4863,"6-methoxy-1,2,3,4-tetrahydronaphthalene",SUFDFKRJYKNTFH-UHFFFAOYSA-N,COc1ccc2CCCCc2c1,-2.7477385243
A-4865,"naphthalene-1,5-diamine",KQSABULTKYLFEV-UHFFFAOYSA-N,Nc1cccc2c(N)cccc12,-2.7678536958
A-4867,4-cyclohexylbutan-2-ol,ZBLQQRZVKHLRBF-UHFFFAOYSA-N,CC(O)CCC1CCCCC1,-2.7673615716
A-4869,barium tartarate,HQYOWPDUMCBSLQ-UHFFFAOYSA-L,[Ba++].OC(C(O)C([O-])=O)C([O-])=O,-3.0523304042
A-4870,"1,1'-[methylenebis(oxy)]dibutane",QLCJOAMJPCOIDI-UHFFFAOYSA-N,CCCCOCOCCCC,-2.8068769998
A-4872,cinchonan-9-ol,KMPWYEUPVWOPIM-QAMTZSDWSA-N,O[C@H]([C@H]1C[C@@H]2CCN1C[C@@H]2C=C)c3ccnc4ccccc34,-3.0887236136
A-4873,hexadecyltrimethylazanium chloride,WOWHHFRSBJGXCM-UHFFFAOYSA-M,[Cl-].CCCCCCCCCCCCCCCC[N+](C)(C)C,-3.1249455224
A-4874,"6-[(3-{[(6-carboxycyclohex-3-en-1-yl)carbonyl]oxy}-2,2-dimethylpropoxy)carbonyl]cyclohex-3-ene-1-carboxylate",ZNLDISJPOBTICN-UHFFFAOYSA-N,CC1(C)COC(=O)C2CC=CCC2C(=O)OC1,-3.0041810563
A-4876,Neomenthol,NOOLISFMXDJSKH-MGRQHWMJSA-N,CC(C)[C@H]1CC[C@@H](C)CC1O,-2.8302608531
A-4878,"methyl 2,6,6-trimethylcyclohex-2-ene-1-carboxylate",NVAGRWXDIIKUBU-UHFFFAOYSA-N,COC(=O)C1C(=CCCC1(C)C)C,-2.9085159963
A-4884,"3,3-dimethylbut-1-yne",PPWNCLVNXGCGAF-UHFFFAOYSA-N,CC(C)(C)C#C,-2.6135564252
A-4885,"N,N-dimethyl-N-tetradecyltetradecan-1-aminium chloride",RSHHCURRBLAGFA-UHFFFAOYSA-M,[Cl-].CCCCCCCCCCCCCC[N+](C)(C)CCCCCCCCCCCCCC,-3.3750249603
A-4889,2-phenoxyethyl 2-methylpropanoate,MJTPMXWJHPOWGH-UHFFFAOYSA-N,CC(C)C(=O)OCCOc1ccccc1,-3.0263435366
A-4890,7-amino-3-methyl-8-oxo-5-thia-1-azabicyclo[4.2.0]oct-2-ene-2-carboxylic acid,NVIAYEIXYQCDAN-UHFFFAOYSA-N,CC1=C(N2C(SC1)C(N)C2=O)C(O)=O,-3.0453554133
A-4894,2-hydroxy-4-methylbenzamide,OLEJYVBTZPUQDX-UHFFFAOYSA-N,Cc1ccc(C(N)=O)c(O)c1,-2.9170001587
A-4896,"6-chloro-2,3-dihydro-1H-indol-2-one",CENVPIZOTHULGJ-UHFFFAOYSA-N,Clc1ccc2CC(=O)Nc2c1,-2.9689885527
A-4899,2-benzyl-2-methylbut-3-enenitrile,UKLOORXNVRHFRM-UHFFFAOYSA-N,CC(Cc1ccccc1)(C=C)C#N,-3.0006167172
A-4900,"1,4-dibutyl (2Z)-but-2-enedioate",JBSLOWBPDRZSMB-FPLPWBNLSA-N,CCCCOC(=O)\C=C/C(=O)OCCCC,-3.1280341619
A-4903,2-amino-3-[(2-amino-2-carboxyethyl)disulfanyl]propanoic acid,LEVWYRKDKASIDU-IMJSIDKUSA-N,N[C@@H](CSSC[C@H](N)C(O)=O)C(O)=O,-3.1599219868
A-4905,methyl 2-ethylhexanoate,KICUISADAVMYCJ-UHFFFAOYSA-N,CCCCC(CC)C(=O)OC,-2.9898040042
A-4906,cyclohexene,HGCIXCUEYOPUTN-UHFFFAOYSA-N,C1CCC=CC1,-2.7104664382
A-4907,"3-(2-hydroxyethyl)-1,2,3,4-tetrahydroquinazoline-2,4-dione",DSUNWRHRAQZLNC-UHFFFAOYSA-N,OCCN1C(=O)Nc2ccccc2C1=O,-3.1128936428
A-4908,5-heptyloxolan-2-one,PHXATPHONSXBIL-JTQLQIEISA-N,CCCCCCC[C@H]1CCC(=O)O1,-3.0668187599
A-4909,calcium dihydrate hydrogen phosphate,FUFJGUQYACFECW-UHFFFAOYSA-L,[Ca++].O[P]([O-])([O-])=O,-2.9490262679
A-4911,pent-1-ene,YWAKXRMUMFPDSH-UHFFFAOYSA-N,CCCC=C,-2.6756730859
A-4913,2-{[(2-ethylhexyl)oxy]methyl}oxirane,BBBUAWSVILPJLL-UHFFFAOYSA-N,CCCCC(CC)COCC1CO1,-3.1148651615
A-4914,boron(3+) ion phosphate,RKVCQBPDVHFKCU-UHFFFAOYSA-N,O=[P]12OB(O1)O2,-2.8690757364
A-4916,"1-(2,4-dichlorophenyl)-2-(1H-imidazol-1-yl)ethan-1-ol",UKVLTPAGJIYSGN-UHFFFAOYSA-N,OC(Cn1ccnc1)c2ccc(Cl)cc2Cl,-3.2640078237
A-4918,bis[(2-ethylhexyl)oxy]phosphinic acid,SEGLCEQVOFDUPX-UHFFFAOYSA-N,CCCCC(CC)CO[P](O)(=O)OCC(CC)CCCC,-3.3623020198
A-4919,"disodium 5-{[bis(phenylamino)-1,3,5-triazin-2-yl]amino}-2-[(E)-2-(4-{[bis(phenylamino)-1,3,5-triazin-2-yl]amino}-2-sulfonatophenyl)ethenyl]benzene-1-sulfonate",HOSFCSQXJQXSIQ-ZPZFBZIMSA-L,[Na+].[Na+].[O-][S](=O)(=O)c1cc(Nc2nc(Nc3ccccc3)nc(Nc4ccccc4)n2)ccc1\C=C\c5ccc(Nc6nc(Nc7ccccc7)nc(Nc8ccccc8)n6)cc5[S]([O-])(=O)=O,-3.8255874528
A-4920,12-aminododecanoic acid,PBLZLIFKVPJDCO-UHFFFAOYSA-N,[NH3+]CCCCCCCCCCCC([O-])=O,-3.1963980912
A-4921,2-isobutyl-4-methyltetrahydro-2H-pyran,LETLQGKRPMMKKC-UHFFFAOYSA-N,CC(C)CC1CC(C)CCO1,-3.0799294807
A-4922,"4,4'-disulfanediyldimorpholine",HLBZWYXLQJQBKU-UHFFFAOYSA-N,C1CN(CCO1)SSN2CCOCC2,-3.2596343038
A-4923,"5-bromo-1,2,3-trifluorobenzene",HKJCELUUIFFSIN-UHFFFAOYSA-N,Fc1cc(Br)cc(F)c1F,-3.2102979357
A-4924,4-[(morpholin-4-ylcarbonothioyl)sulfanyl]morpholine,HOEFWOBLOGZQIQ-UHFFFAOYSA-N,S=C(SN1CCOCC1)N2CCOCC2,-3.2913006621