ID,Name,InChIKey,SMILES,Solubility
A-3,"N,N,N-trimethyloctadecan-1-aminium bromide",SZEMGTQCPRNXEG-UHFFFAOYSA-M,[Br-].CCCCCCCCCCCCCCCCCC[N+](C)(C)C,-3.6161271205
A-4,Benzo[cd]indol-2(1H)-one,GPYLCFQEKPUWLD-UHFFFAOYSA-N,O=C1Nc2cccc3cccc1c23,-3.2547670983
A-5,4-chlorobenzaldehyde,AVPYQKSLYISFPO-UHFFFAOYSA-N,Clc1ccc(C=O)cc1,-2.1770779444
A-8,"zinc bis[2-hydroxy-3,5-bis(1-phenylethyl)benzoate]",XTUPUYCJWKHGSW-UHFFFAOYSA-L,[Zn++].CC(c1ccccc1)c2cc(C(C)c3ccccc3)c(O)c(c2)C([O-])=O.CC(c4ccccc4)c5cc(C(C)c6ccccc6)c(O)c(c5)C([O-])=O,-3.9244090954
A-9,"4-({4-[bis(oxiran-2-ylmethyl)amino]phenyl}methyl)-N,N-bis(oxiran-2-ylmethyl)aniline",FAUAZXVRLVIARB-UHFFFAOYSA-N,C1OC1CN(CC2CO2)c3ccc(Cc4ccc(cc4)N(CC5CO5)CC6CO6)cc3,-4.6620645831
A-10,vinyltoluene,JZHGRUMIRATHIU-UHFFFAOYSA-N,Cc1cccc(C=C)c1,-3.1231503041
A-11,3-(3-ethylcyclopentyl)propanoic acid,WVRFSLWCFASCIS-UHFFFAOYSA-N,CCC1CCC(CCC(O)=O)C1,-3.286116314
A-12,"11,16,17,21-tetrahydroxypregna-1,4-diene-3,20-dione",SEKYBDYVXDAYPY-UHFFFAOYSA-N,CC12CC(O)C3C(CCC4=CC(=O)C=CC34C)C1CC(O)C2(O)C(=O)CO,-2.6645485391
A-14,bis(4-fluorophenyl)methanone,LSQARZALBDFYQZ-UHFFFAOYSA-N,Fc1ccc(cc1)C(=O)c2ccc(F)cc2,-4.3966521847
A-15,1-[2-(benzoyloxy)propoxy]propan-2-yl benzoate 1-{[1-(benzoyloxy)propan-2-yl]oxy}propan-2-yl benzoate 2-{[1-(benzoyloxy)propan-2-yl]oxy}propyl benzoate,BYQDGAVOOHIJQS-UHFFFAOYSA-N,O=C(OCCCOCCCOC(=O)c1ccccc1)c2ccccc2,-4.595502564
A-17,4-(dimethylamino)benzaldehyde,BGNGWHSBYQYVRX-UHFFFAOYSA-N,CN(C)c1ccc(C=O)cc1,-2.2827688499
A-18,2-methyl-1-phenylpropan-2-yl acetate,FLUWAIIVLCVEKF-UHFFFAOYSA-N,CC(=O)OC(C)(C)Cc1ccccc1,-2.3946499685
A-19,"2,3-dimethylphenol; 2,4-dimethylphenol; 2,5-dimethylphenol; 2,6-dimethylphenol; 3,4-dimethylphenol; 3,5-dimethylphenol",YJZHZFOWHRKQHS-UHFFFAOYSA-N,Cc1ccc(O)c(C)c1.Cc2ccc(C)c(O)c2.Cc3cc(C)cc(O)c3.Cc4ccc(O)cc4C.Cc5cccc(O)c5C.Cc6cccc(C)c6O,-1.9803097957
A-21,2-(4-tert-butylphenoxymethyl)oxirane,HHRACYLRBOUBKM-UHFFFAOYSA-N,CC(C)(C)c1ccc(OCC2CO2)cc1,-3.4302388798
A-22,5-methoxy-1-[4-(trifluoromethyl)phenyl]pentan-1-one,VYKSRLDHXQURKA-UHFFFAOYSA-N,COCCCCC(=O)c1ccc(cc1)C(F)(F)F,-3.5440597008
A-23,"(2E)-3,7-dimethylocta-2,6-dien-1-ol",GLZPCOQZEFWAFX-YFHOEESVSA-N,CC(C)=CCC\C(C)=C/CO,-2.3206011661
A-24,2-(4-chloro-2-methylphenoxy)propanoic acid,WNTGYJSOUMFZEP-UHFFFAOYSA-N,CC(Oc1ccc(Cl)cc1C)C(O)=O,-2.4660307863
A-25,zinc bis[O-(2-ethylhexyl) O-isobutyl dithiophosphate],FHIAIHDDIOVFSY-UHFFFAOYSA-L,[Zn++].CCCCC(CC)CO[P]([S-])(=S)OCC(C)C.CCCCC(CC)CO[P]([S-])(=S)OCC(C)C,-2.9581950472
A-26,1-chloro-3-(trifluoromethyl)benzene,YTCGOUNVIAWCMG-UHFFFAOYSA-N,FC(F)(F)c1cccc(Cl)c1,-3.4115138849
A-27,"oxiran-2-ylmethyl 2,2-dimethyloctanoate",DHEHEJGXTUCSQF-UHFFFAOYSA-N,CCC(C)(CCC(C)C)C(=O)OCC1CO1,-3.5134687407
A-28,2-methylheptyl 3-sulfanylpropanoate,ZHUWXKIPGGZNJW-UHFFFAOYSA-N,CC(C)CCCCCOC(=O)CCS,-4.4543816995
A-29,1-methyl-4-(propan-2-ylidene)cyclohex-1-ene,MOYAFQVGZZPNRA-UHFFFAOYSA-N,CC(C)=C1CCC(=CC1)C,-4.2873429345
A-30,aluminium(3+) ion sodium bis(oxosilanebis(olate)),URGAHOPLAPQHLN-UHFFFAOYSA-N,[Na+].[Al+3].[O-][Si]([O-])=O.[O-][Si]([O-])=O,-3.4731390517
A-31,zinc(2+) ion bis(2-methylprop-2-enoate),IQODPIFSDKREOZ-UHFFFAOYSA-M,[Zn++].CC(=C)C([O-])=O,-2.3632080977
A-32,3-[2-(ethylamino)-1-hydroxyethyl]phenol,SQVIAVUSQAWMKL-UHFFFAOYSA-N,CCNCC(O)c1cccc(O)c1,-3.4541026398
A-33,"Phosphorodithioic acid, mixed O,O-bis(sec-Bu and 1,3-dimethylbutyl) esters, zinc salts",PWMSQVOBEKFBRF-UHFFFAOYSA-L,[Zn++].CCC(C)O[P]([S-])(=S)OC(C)CC(C)C.CCC(C)O[P]([S-])(=S)OC(C)CC(C)C,-2.9908768679
A-34,"2,4-dichloro-1-(chloromethyl)benzene",IRSVDHPYXFLLDS-UHFFFAOYSA-N,ClCc1ccc(Cl)cc1Cl,-3.5129421932
A-36,"(1S,5S)-6,6-dimethyl-2-methylidenebicyclo[3.1.1]heptane",WTARULDDTDQWMU-UHFFFAOYSA-N,CC1(C)C2CCC(=C)C1C2,-4.2923134549
A-38,"9-Octadecenoic acid (Z)-, reaction products with 2-[(2-aminoethyl)amino]ethanol",YGJDXOJIYODGEO-KVVVOXFISA-N,CCCCCCCC\C=C/CCCCCCCC(O)=O.NCCNCCO,-4.8091341894
A-39,dodecyl 2-hydroxypropanoate,QQQMUBLXDAFBRH-UHFFFAOYSA-N,CCCCCCCCCCCCOC(=O)C(C)O,-4.6341446203
A-45,hydroxylamine,AVXURJPOCDRRFD-UHFFFAOYSA-N,NO,-0.763033718
A-47,2-phenoxyethyl prop-2-enoate,RZVINYQDSSQUKO-UHFFFAOYSA-N,C=CC(=O)OCCOc1ccccc1,-2.5636257131
A-48,benzyl-tributylazanium; 4-hydroxynaphthalene-1-sulfonate,XVJXBJTXFXPQAN-UHFFFAOYSA-M,CCCC[N+](CCCC)(CCCC)Cc1ccccc1.Oc2ccc(c3ccccc23)[S]([O-])(=O)=O,-2.6418192727
A-49,undec-10-enoic acid,FRPZMMHWLSIFAZ-UHFFFAOYSA-N,OC(=O)CCCCCCCCC=C,-3.5528261452
A-50,"carboxymethyldimethyl-3-[[(3,3,4,4,5,5,6,6,7,7,8,8,8-tridecafluorooctyl)sulphonyl]amino]propylammonium hydroxide",OKOCIUJVPQKDLL-UHFFFAOYSA-N,C[N+](C)(CCCN[S](=O)(=O)CCC(F)(F)C(F)(F)C(F)(F)C(F)(F)C(F)(F)C(F)(F)F)CC([O-])=O,-4.0571851475
A-51,2-benzyl-2-(dimethylamino)-1-[4-(morpholin-4-yl)phenyl]butan-1-one,UHFFVFAKEGKNAQ-UHFFFAOYSA-N,CCC(Cc1ccccc1)(N(C)C)C(=O)c2ccc(cc2)N3CCOCC3,-4.7932278922
A-53,"4-(4,6-dimethylheptan-2-yl)phenol; 4-(5,6-dimethylheptan-2-yl)phenol; 4-(5,6-dimethylheptyl)phenol; 4-(7-methyloctyl)phenol",JSFITYFUKSFPBZ-UHFFFAOYSA-N,CC(C)CCCCCCc1ccc(O)cc1,-4.5872500246
A-54,"1,3-bis(prop-1-en-2-yl)benzene",IBVPVTPPYGGAEL-UHFFFAOYSA-N,CC(=C)c1cccc(c1)C(C)=C,-4.4511392252
A-55,molybdenum,ZOKXTWBITQBERF-UHFFFAOYSA-N,[Mo],-4.2038484637
A-56,"ethenyl 2,2-dimethyloctanoate",TVFJAZCVMOXQRK-UHFFFAOYSA-N,CC(C)(C)CCCCCC(=O)OC=C,-4.5813325109
A-58,1-tert-butyl-4-methylbenzene,QCWXDVFBZVHKLV-UHFFFAOYSA-N,Cc1ccc(cc1)C(C)(C)C,-4.4720217682
A-61,cyclohexanecarboxylic acid,NZNMSOFKMUBTKW-UHFFFAOYSA-N,OC(=O)C1CCCCC1,-1.445031941
A-62,"pentasodium 5-{[4-chloro-6-({3-[2-(sulfonatooxy)ethanesulfonyl]phenyl}amino)-1,3,5-triazin-2-yl]amino}-3-[(E)-2-(1,5-disulfonatonaphthalen-2-yl)diazen-1-yl]-4-hydroxynaphthalene-2,7-disulfonate",NVNQRAOQGCJYDU-QUSWNXLDSA-I,[Na+].[Na+].[Na+].[Na+].[Na+].[O-][S](=O)(=O)OCC[S](=O)(=O)c1cccc(Nc2nc(Cl)nc(Nc3cc(cc4C=C(\C(=N/Nc5ccc6c(cccc6[S]([O-])(=O)=O)c5[S]([O-])(=O)=O)C(=O)c34)[S]([O-])(=O)=O)[S]([O-])(=O)=O)n2)c1,-0.4108977358
A-63,"N,N'-bis(3-phenylprop-2-en-1-ylidene)hexane-1,6-diamine",ATPFMBHTMKBVLS-NCDJPSHJSA-N,C(CCCN=C\C=C\c1ccccc1)CCN=C/C=C/c2ccccc2,-3.8937390711
A-65,"2-(benzotriazol-2-yl)-6-[[3-(benzotriazol-2-yl)-2-hydroxy-5-(2,4,4-trimethylpentan-2-yl)phenyl]methyl]-4-(2,4,4-trimethylpentan-2-yl)phenol",FQUNFJULCYSSOP-UHFFFAOYSA-N,CC(C)(C)CC(C)(C)c1cc(Cc2cc(cc(n3nc4ccccc4n3)c2O)C(C)(C)CC(C)(C)C)c(O)c(c1)n5nc6ccccc6n5,-7.9737155354
A-68,[2-({4-[(E)-2-(2-chloro-4-nitrophenyl)diazen-1-yl]phenyl}(ethyl)amino)ethyl]trimethylazanium chloride,ZFRUNHQZTYGGDY-UHFFFAOYSA-M,[Cl-].CCN(CC[N+](C)(C)C)c1ccc(cc1)N=Nc2ccc(cc2Cl)[N+]([O-])=O,-3.038699623
A-69,"2-(morpholin-4-ylsulfanyl)-1,3-benzothiazole",MHKLKWCYGIBEQF-UHFFFAOYSA-N,C1CN(CCO1)Sc2sc3ccccc3n2,-3.8109627954
A-70,"(1R-(1alpha,2beta,4beta,6alpha))-2,2,7-Trimethyl-3-oxatricyclo(4.1.1.02,4)octane",NQFUSWIGRKFAHK-BDNRQGISSA-N,CC1(C)[C@H]2C[C@@H]3O[C@]3(C)[C@@H]1C2,-2.5936884915
A-71,"tetrasodium 7-[(E)-2-[2-(carbamoylamino)-4-{[4-chloro-6-({3-[2-(sulfonatooxy)ethanesulfonyl]phenyl}amino)-1,3,5-triazin-2-yl]amino}phenyl]diazen-1-yl]naphthalene-1,3,6-trisulfonate",UIEBGVDTKLYGTN-UHFFFAOYSA-J,[Na+].[Na+].[Na+].[Na+].NC(=O)Nc1cc(Nc2nc(Cl)nc(Nc3cccc(c3)[S](=O)(=O)CCO[S]([O-])(=O)=O)n2)ccc1N=Nc4cc5c(cc(cc5[S]([O-])(=O)=O)[S]([O-])(=O)=O)cc4[S]([O-])(=O)=O,-0.4261364852
A-72,"disodium 7-{[4-chloro-6-(dodecylamino)-1,3,5-triazin-2-yl]amino}-4-hydroxy-3-(2-{4-[2-(4-sulfonatophenyl)diazen-1-yl]phenyl}diazen-1-yl)naphthalene-2-sulfonate",VDKPMRJPMMEELL-UHFFFAOYSA-L,[Na+].[Na+].CCCCCCCCCCCCNc1nc(Cl)nc(Nc2ccc3c(O)c(N=Nc4ccc(cc4)N=Nc5ccc(cc5)[S]([O-])(=O)=O)c(cc3c2)[S]([O-])(=O)=O)n1,-3.358911212
A-73,S-ethyl dipropylthiocarbamate,GUVLYNGULCJVDO-UHFFFAOYSA-N,CCCN(CCC)C(=O)SCC,-2.7031744039
A-74,2-[({4-[(oxiran-2-ylmethoxy)methyl]cyclohexyl}methoxy)methyl]oxirane,VQMQXWYQIIUJIT-UHFFFAOYSA-N,C1CC(CCC1COCC2CO2)COCC3CO3,-1.8357972344
A-75,"1-hydroxy-4-methyl-6-(2,4,4-trimethylpentyl)pyridin-2(1H)-one - 2-aminoethanol (1:1)",BTSZTGGZJQFALU-UHFFFAOYSA-N,CC(CC1=CC(=CC(=O)N1O)C)CC(C)(C)C.NCCO,-3.9054642035
A-76,pentacalcium hydroxide triphosphate,XYJRXVWERLGGKC-UHFFFAOYSA-D,[OH-].[Ca++].[Ca++].[Ca++].[Ca++].[Ca++].[O-][P]([O-])([O-])=O.[O-][P]([O-])([O-])=O.[O-][P]([O-])([O-])=O,-4.1419008964
A-77,"6H-dibenzo[c,e][1,2]oxaphosphinine 6-oxide",DWSWCPPGLRSPIT-UHFFFAOYSA-N,O=[P+]1Oc2ccccc2c3ccccc13,-1.7796231349
A-79,ethenyl benzoate,KOZCZZVUFDCZGG-UHFFFAOYSA-N,C=COC(=O)c1ccccc1,-2.6229591952
A-80,methyl 4-tert-butylbenzoate,UPIJOAFHOIWPLT-UHFFFAOYSA-N,COC(=O)c1ccc(cc1)C(C)(C)C,-3.7398163758
A-81,"2,2-dimethyl-3-(3-methylphenyl)propan-1-ol",FYMOBFDUZIDKMI-UHFFFAOYSA-N,Cc1cccc(CC(C)(C)CO)c1,-2.8265354685
A-83,"(2E)-3,7-dimethylocta-2,6-dien-1-yl acetate",HIGQPQRQIQDZMP-FLIBITNWSA-N,CC(=O)OC\C=C(C)/CCC=C(C)C,-3.7549532157
A-86,"2-{6,6-dimethylbicyclo[3.1.1]hept-2-en-2-yl}ethan-1-ol",ROKSAUSPJGWCSM-UWVGGRQHSA-N,CC1(C)[C@H]2CC=C(CCO)[C@@H]1C2,-2.6959998037
A-89,"3,3,5-trimethylcyclohexanone",POSWICCRDBKBMH-UHFFFAOYSA-N,CC1CC(=O)CC(C)(C)C1,-1.6471414632
A-91,2-(2-phenylphenoxy)ethyl prop-2-enoate,VAZQKPWSBFZARZ-UHFFFAOYSA-N,C=CC(=O)OCCOc1ccccc1c2ccccc2,-3.9515188418
A-94,"3-[(3-sulfanylpropanoyl)oxy]-2,2-bis({[(3-sulfanylpropanoyl)oxy]methyl})propyl 3-sulfanylpropanoate",JOBBTVPTPXRUBP-UHFFFAOYSA-N,SCCC(=O)OCC(COC(=O)CCS)(COC(=O)CCS)COC(=O)CCS,-5.1231687481
A-100,"4-[2-(4-hydroxy-3,5-dimethylphenyl)propan-2-yl]-2,6-dimethylphenol",ODJUOZPKKHIEOZ-UHFFFAOYSA-N,Cc1cc(cc(C)c1O)C(C)(C)c2cc(C)c(O)c(C)c2,-4.9528688028
A-101,"1,3-bis(octadecanoyloxy)propan-2-yl octadecanoate",DCXXMTOCNZCJGO-UHFFFAOYSA-N,CCCCCCCCCCCCCCCCCC(=O)OCC(COC(=O)CCCCCCCCCCCCCCCCC)OC(=O)CCCCCCCCCCCCCCCCC,-5.4730005799
A-106,"ethyl 3,5,5-trimethylhexanoate",NMZMQQBBZRGLPJ-UHFFFAOYSA-N,CCOC(=O)CC(C)CC(C)(C)C,-3.8230431676
A-109,calcium oxosilanebis(olate),OYACROKNLOSFPA-UHFFFAOYSA-N,[Ca++].[O-][Si]([O-])=O,-2.6500869941
A-111,5-Ethyl-2-methylpyridine,NTSLROIKFLNUIJ-UHFFFAOYSA-N,CCc1ccc(C)nc1,-1.0042604536
A-113,"(1R,2S,5R)-5-methyl-2-(propan-2-yl)cyclohexyl (2S)-2-hydroxypropanoate",UJNOLBSYLSYIBM-NOOOWODRSA-N,CC(C)[C@@H]1CC[C@@H](C)C[C@H]1OC(=O)[C@H](C)O,-2.9799872046
A-114,Prednisolone,OIGNJSKKLXVSLS-VWUMJDOOSA-N,C[C@]12C[C@H](O)[C@H]3[C@@H](CCC4=CC(=O)C=C[C@]34C)[C@@H]1CC[C@]2(O)C(=O)CO,-3.1784471289
A-115,"disodium 5-methyl-2-({4-[(4-methyl-2-sulfonatophenyl)amino]-9,10-dioxo-9,10-dihydroanthracen-1-yl}amino)benzene-1-sulfonate",FPAYXBWMYIMERV-UHFFFAOYSA-L,[Na+].[Na+].Cc1ccc(Nc2ccc(Nc3ccc(C)cc3[S]([O-])(=O)=O)c4C(=O)c5ccccc5C(=O)c24)c(c1)[S]([O-])(=O)=O,-1.4270312571
A-116,dialuminium(3+) ion dimolybdenum nonaoxidandiide,CTVFHFFURJHNAT-UHFFFAOYSA-N,[O--].[O--].[O--].[O--].[O--].[O--].[O--].[O--].[O--].[Al+3].[Al+3].[Mo].[Mo],-4.2291529922
A-117,2-phenoxyethyl 2-methylprop-2-enoate,CEXQWAAGPPNOQF-UHFFFAOYSA-N,CC(=C)C(=O)OCCOc1ccccc1,-2.9526471698
A-118,"5-{[2-(2-butoxyethoxy)ethoxy]methyl}-6-propyl-2H-1,3-benzodioxole",FIPWRIJSWJWJAI-UHFFFAOYSA-N,CCCCOCCOCCOCc1cc2OCOc2cc1CCC,-4.1510889183
A-119,fluoromethane,NBVXSUQYWXRMNV-UHFFFAOYSA-N,CF,-0.1758743765
A-122,(2-phenoxyethoxy)benzene,XCSGHNKDXGYELG-UHFFFAOYSA-N,C(COc1ccccc1)Oc2ccccc2,-3.9885265275
A-123,"4-[(4-amino-2-chloro-3,5-diethylphenyl)methyl]-3-chloro-2,6-diethylaniline",VIOMIGLBMQVNLY-UHFFFAOYSA-N,CCc1cc(Cc2cc(CC)c(N)c(CC)c2Cl)c(Cl)c(CC)c1N,-7.2780387128
A-124,"sodium 1-amino-9,10-dioxo-4-({2,4,6-trimethyl-3-[(phenylformamido)methyl]phenyl}amino)-9,10-dihydroanthracene-2-sulfonate",OFHDOLUPOLKDSG-UHFFFAOYSA-M,[Na+].Cc1cc(C)c(Nc2cc(c(N)c3C(=O)c4ccccc4C(=O)c23)[S]([O-])(=O)=O)c(C)c1CNC(=O)c5ccccc5,-1.4396051213
A-125,2-propylpentanoic acid,NIJJYAXOARWZEE-UHFFFAOYSA-N,CCCC(CCC)C(O)=O,-1.8579774272
A-127,zinc di(benzothiazol-2-yl) disulphide,PGNWIWKMXVDXHP-UHFFFAOYSA-L,[Zn++].[S-]c1sc2ccccc2n1.[S-]c3sc4ccccc4n3,-4.285895804
A-128,2-(2-{[2-(oxiran-2-ylmethoxy)phenyl]methyl}phenoxymethyl)oxirane; 2-(2-{[4-(oxiran-2-ylmethoxy)phenyl]methyl}phenoxymethyl)oxirane; 2-(4-{[4-(oxiran-2-ylmethoxy)phenyl]methyl}phenoxymethyl)oxirane,IRJIVOLJTYKLEH-UHFFFAOYSA-N,Oc1ccccc1.ClCC2CO2.C=O,-4.0347567611
A-129,"3-[(2E)-oct-2-en-1-yl]oxolane-2,5-dione; 3-[(2Z)-oct-2-en-1-yl]oxolane-2,5-dione",FLISWPFVWWWNNP-BQYQJAHWSA-N,CCCCCC/C=C/C1CC(=O)OC1=O,-4.0217535152
A-134,2-(chloromethyl)oxirane; 4-[2-(4-hydroxyphenyl)propan-2-yl]phenol; 2-methylprop-2-enoic acid,HXMNCTCIJUKTBN-UHFFFAOYSA-N,CC(=C)C(O)=O.CC(C)(c1ccc(O)cc1)c2ccc(O)cc2.ClCC3CO3,-5.229282852
A-135,"(1S,5S)-2,6,6-trimethylbicyclo[3.1.1]hept-2-ene",GRWFGVWFFZKLTI-IUCAKERBSA-N,CC1=CC[C@H]2C[C@@H]1C2(C)C,-4.7725704235
A-139,trimethyl[(trimethylsilyl)oxy]silane,UQEAIHBTYFGYIE-UHFFFAOYSA-N,C[Si](C)(C)O[Si](C)(C)C,-4.909505216
A-140,"2,3,3,3-tetrafluoroprop-1-ene",FXRLMCRCYDHQFW-UHFFFAOYSA-N,FC(=C)C(F)(F)F,-2.7599573667
A-141,2H-chromen-2-one,ZYGHJZDHTFUPRJ-UHFFFAOYSA-N,O=C1Oc2ccccc2C=C1,-1.8860303607
A-142,1-methyl-4-(prop-1-en-2-yl)cyclohex-1-ene,XMGQYMWWDOXHJM-UHFFFAOYSA-N,CC(=C)C1CCC(=CC1)C,-3.8464965295
A-143,"hydrogen [4-[[4-(diethylamino)-o-tolyl][4-[ethyl(3-sulphonatobenzyl)amino]phenyl]methylene]cyclohexa-2,5-dien-1-ylidene](ethyl)(3-sulphonatobenzyl)ammonium, sodium salt",IXNUVCLIRYUKFB-UHFFFAOYSA-M,[Na+].CCN(CC)c1ccc([C+](c2ccc(cc2)N(CC)Cc3cccc(c3)[S]([O-])(=O)=O)c4ccc(cc4)N(CC)Cc5cccc(c5)[S]([O-])(=O)=O)c(C)c1,-0.6229779303
A-144,tungsten(4+) ion disulfanediide,ITRNXVSDJBHYNJ-UHFFFAOYSA-N,S=[W]=S,-4.1391336425
A-145,disodium 5-[(E)-2-(5-hydroxy-3-methyl-1-phenyl-1H-pyrazol-4-yl)diazen-1-yl]-2-{4-[(E)-2-(5-hydroxy-3-methyl-1-phenyl-1H-pyrazol-4-yl)diazen-1-yl]-2-sulfonatophenyl}benzene-1-sulfonate,ZRYQXQUPWQNYSX-UHFFFAOYSA-L,[Na+].[Na+].CC1=NN(C(=O)C1N=Nc2ccc(c3ccc(cc3[S]([O-])(=O)=O)N=NC4C(=NN(C4=O)c5ccccc5)C)c(c2)[S]([O-])(=O)=O)c6ccccc6,-1.642781181
A-146,"(1R,2R,4R)-1,7,7-trimethylbicyclo[2.2.1]heptan-2-yl acetate (1S,2S,4S)-1,7,7-trimethylbicyclo[2.2.1]heptan-2-yl acetate",KGEKLUUHTZCSIP-JFGNBEQYSA-N,CC(=O)O[C@H]1C[C@H]2CC[C@@]1(C)C2(C)C,-3.0887781924
A-147,dioxido-oxosilane; lead(+2) cation,AFPIWWDEGJLLCL-UHFFFAOYSA-N,[Pb++].[O-][Si]([O-])=O,-6.6197116003
A-148,2-methyl-1-phenylpropan-2-yl butanoate,SHSGYHAHMQLYRB-UHFFFAOYSA-N,CCCC(=O)OC(C)(C)Cc1ccccc1,-4.1359426126
A-150,"disodium 4,4'-[(2,4-dihydroxy-1,3-phenylene)didiazene-2,1-diyl]dinaphthalene-1-sulfonate",UTIACSXEVKXHPT-XALLQCHJSA-L,[Na+].[Na+].[O-][S](=O)(=O)c1ccc(N\N=C\2C=CC(=O)C(=N/Nc3ccc(c4ccccc34)[S]([O-])(=O)=O)\C2=O)c5ccccc15,-2.6038411441
A-153,1-[(1-propoxypropan-2-yl)oxy]propan-2-ol,WEZPLQKRXDBPEP-UHFFFAOYSA-N,CCCOCC(C)OCC(C)O,-0.0700526508
A-156,"5-isocyanato-1-(isocyanatomethyl)-1,3,3-trimethylcyclohexane",NIMLQBUJDJZYEJ-UHFFFAOYSA-N,CC1(C)CC(CC(C)(CN=C=O)C1)N=C=O,-4.1708247593
A-158,"octadec-9-enoic acid - N-(2-aminoethyl)ethane-1,2-diamine (1:1)",PYBPYUAKCDQFCS-KVVVOXFISA-N,CCCCCCCC\C=C/CCCCCCCC(O)=O.NCCNCCN,-4.4100874366
A-162,1-[2-[[4-[(2-chloro-4-nitrophenyl)azo]phenyl]ethylamino]ethyl]pyridinium acetate,WQIDMVKHMHGZPN-UHFFFAOYSA-M,CCN(CC[n+]1ccccc1)c2ccc(cc2)N=Nc3ccc(cc3Cl)[N+]([O-])=O.CC([O-])=O,-1.5218900849
A-167,diphenyl carbonate,ROORDVPLFPIABK-UHFFFAOYSA-N,O=C(Oc1ccccc1)Oc2ccccc2,-4.2169166627
A-168,vinyl 2-ethylhexanoate,IGBZOHMCHDADGY-UHFFFAOYSA-N,CCCCC(CC)C(=O)OC=C,-4.1519109764
A-169,2-methyl-N-[(2-methylprop-2-enamido)methyl]prop-2-enamide,TURITJIWSQEMDB-UHFFFAOYSA-N,CC(=C)C(=O)NCNC(=O)C(C)=C,-1.1892367555
A-170,"(1Z,5Z)-cycloocta-1,5-diene",VYXHVRARDIDEHS-QGTKBVGQSA-N,C\1C\C=C/CC\C=C1,-2.9659771733
A-171,(3-isocyanatopropyl)trimethoxysilane,FMGBDYLOANULLW-UHFFFAOYSA-N,CO[Si](CCCN=C=O)(OC)OC,-3.2569810012
A-172,(3-chloropropyl)triethoxysilane,KSCAZPYHLGGNPZ-UHFFFAOYSA-N,CCO[Si](CCCCl)(OCC)OCC,-3.3285834497
A-176,"1,2-dibutyl benzene-1,2-dicarboxylate",DOIRQSBPFJWKBE-UHFFFAOYSA-N,CCCCOC(=O)c1ccccc1C(=O)OCCCC,-4.3876832538
A-177,"sodium 3-{[9,10-dioxo-4-({2,4,6-trimethyl-3-[(sodiooxy)sulfonyl]phenyl}amino)-9,10-dihydroanthracen-1-yl]amino}-2,4,6-trimethylbenzene-1-sulfonate",UHXQPQCJDDSMCB-UHFFFAOYSA-L,[Na+].[Na+].Cc1cc(C)c(c(C)c1Nc2ccc(Nc3c(C)cc(C)c(c3C)[S]([O-])(=O)=O)c4C(=O)c5ccccc5C(=O)c24)[S]([O-])(=O)=O,-1.7922611704
A-178,"4-benzoylbenzene-1,2,3-triol",HTQNYBBTZSBWKL-UHFFFAOYSA-N,Oc1ccc(c(O)c1O)C(=O)c2ccccc2,-3.3451078238
A-182,"3-[(2E)-dodec-2-en-1-yl]oxolane-2,5-dione; 3-[(2Z)-dodec-2-en-1-yl]oxolane-2,5-dione",UYCICMIUKYEYEU-ZHACJKMWSA-N,CCCCCCCCC\C=C\CC1CC(=O)OC1=O,-4.4255032449
A-183,"dihydro-3-(tetrapropenyl)furan-2,5-dione",WBRBLKRDTHYRRV-MDWZMJQESA-N,CC(C)CC(C)CC(C)\C=C(/C)C1CC(=O)OC1=O,-4.4255032449
A-184,{2-hydroxy-3-[(9Z)-octadec-9-enoyloxy]propoxy}boronic acid 2-hydroxy-3-{[hydroxy({2-hydroxy-3-[(9Z)-octadec-9-enoyloxy]propoxy})boranyl]oxy}propyl (9Z)-octadec-9-enoate 3-{[bis({2-hydroxy-3-[(9Z)-octadec-9-enoyloxy]propoxy})boranyl]oxy}-2-hydroxypropyl (9Z)-octadec-9-enoate,VBCPUMZLCRUHTJ-VVUJETCRSA-N,CCCCCCCC\C=C/CCCCCCCC(=O)OCC(O)COB(O)O.CCCCCCCC\C=C/CCCCCCCC(=O)OCC(O)COB(O)OCC(O)COC(=O)CCCCCCC\C=C/CCCCCCCC.CCCCCCCC\C=C/CCCCCCCC(=O)OCC(O)COB(OCC(O)COC(=O)CCCCCCC\C=C/CCCCCCCC)OCC(O)COC(=O)CCCCCCC\C=C/CCCCCCCC,-5.345705158
A-188,4-(decanoyloxy)benzoic acid,QTMHHQFADWIZCP-UHFFFAOYSA-N,CCCCCCCCCC(=O)Oc1ccc(cc1)C(O)=O,-5.4245475497
A-189,"4,4,13,13-tetraethoxy-3,14-dioxa-8,9-dithia-4,13-disilahexadecane",FBBATURSCRIBHN-UHFFFAOYSA-N,CCO[Si](CCCSSCCC[Si](OCC)(OCC)OCC)(OCC)OCC,-5.6765418086
A-191,3-methylbutyl (2E)-3-(4-methoxyphenyl)prop-2-enoate,UBNYRXMKIIGMKK-RMKNXTFCSA-N,COc1ccc(\C=C\C(=O)OCCC(C)C)cc1,-5.4919252104
A-192,2-(hexadecanoylamino)acetic acid,KVTFEOAKFFQCCX-UHFFFAOYSA-N,CCCCCCCCCCCCCCCC(=O)NCC(O)=O,-5.5931226219
A-193,"(1E,5E,9E)-cyclododeca-1,5,9-triene",ZOLLIQAKMYWTBR-UDIJVJLMSA-N,C\1C\C=C/CC\C=C/CC/C=C1,-5.3651562541
A-195,"bis({[bis(3,5,5-trimethylhexyl)carbamothioyl]sulfanyl})zinc",YRZWCIIGZCKHBM-UHFFFAOYSA-L,CC(CCN(CCC(C)CC(C)(C)C)C(=S)S[Zn]SC(=S)N(CCC(C)CC(C)(C)C)CCC(C)CC(C)(C)C)CC(C)(C)C,-6.1025269393
A-196,2-[4-(bromomethyl)phenyl]benzonitrile,LFFIEVAMVPCZNA-UHFFFAOYSA-N,BrCc1ccc(cc1)c2ccccc2C#N,-6.6566491092
A-197,"2,2,6,6-tetramethylpiperidin-4-yl hexadecanoate 2,2,6,6-tetramethylpiperidin-4-yl octadecanoate",KABHMUPUYPTLHI-UHFFFAOYSA-N,CCCCCCCCCCCCCCCCCC(=O)OC1CC(C)(C)NC(C)(C)C1.CCCCCCCCCCCCCCCC(=O)OC2CC(C)(C)NC(C)(C)C2,-6.2145248952
A-198,N-(2-ethylhexyl)-7-methyloctanamide,CYJLFSMDQYFKRD-UHFFFAOYSA-N,CCCCC(CC)CNC(=O)CCCCCC(C)C,-5.731545253
A-199,Doramectin,QLFZZSKTJWDQOS-NJPOTTGESA-N,CO[C@H]1C[C@@H](O[C@@H](C)[C@@H]1O)OC2[C@H](C)O[C@H](C[C@@H]2OC)OC3[C@@H](C)/C=C/C=C/4CO[C@@H]5[C@H](O)C(=C[C@@H](C(=O)O[C@H]6C[C@@H](C\C=C3/C)O[C@@]7(C6)O[C@@H]([C@@H](C)C=C7)C8CCCCC8)[C@]45O)C,-7.5558815137
A-201,"1,1':4',1''-terphenyl",XJKSTNDFUHDPQJ-UHFFFAOYSA-N,c1ccc(cc1)c2ccc(cc2)c3ccccc3,-6.183335848
A-203,pyrene,BBEAQIROQSPTKN-UHFFFAOYSA-N,c1cc2ccc3cccc4ccc(c1)c2c34,-6.1787966156
A-204,"1,4-dibutyl benzene-1,4-dicarboxylate",LQLQDKBJAIILIQ-UHFFFAOYSA-N,CCCCOC(=O)c1ccc(cc1)C(=O)OCCCC,-6.40319542
A-208,1-(2-ethylbutyl)cyclohexane-1-carbonitrile,DRMOLJPDSCAGCC-UHFFFAOYSA-N,CCC(CC)CC1(CCCCC1)C#N,-6.5873382321
A-209,1-(4-methoxyphenyl)-4-(4-nitrophenyl)piperazine,AVCKOFMRPAJEPN-UHFFFAOYSA-N,COc1ccc(cc1)N2CCN(CC2)c3ccc(cc3)[N+]([O-])=O,-6.9290130346
A-212,bis(8-methylnonyl) sebacate,OAXZVLMNNOOMGN-UHFFFAOYSA-N,CC(C)CCCCCCCOC(=O)CCCCCCCCC(=O)OCCCCCCCC(C)C,-7.2523945018
A-213,"6'-(dibutylamino)-3'-methyl-2'-(phenylamino)-3H-spiro[2-benzofuran-1,9'-xanthene]-3-one",XAAILNNJDMIMON-UHFFFAOYSA-N,CCCCN(CCCC)c1ccc2c(Oc3cc(C)c(Nc4ccccc4)cc3C25OC(=O)c6ccccc56)c1,-7.4042503575
A-215,"2,2-difluoro-1,3-benzodioxole-4-carbaldehyde",NIBFJPXGNVPNHK-UHFFFAOYSA-N,FC1(F)Oc2cccc(C=O)c2O1,-2.1558333574
A-216,"1-amino-4-(ethylamino)-9,10-dioxo-9,10-dihydroanthracene-2-carbonitrile",ATXPWKWYLDEURI-UHFFFAOYSA-N,CCNc1cc(C#N)c(N)c2C(=O)c3ccccc3C(=O)c12,-7.6382805905
A-219,(3-aminopropyl)[(9Z)-octadec-9-en-1-yl]amine; bis((9Z)-octadec-9-enoic acid),VTXWSJAEIWTHCL-DJNDIFCPSA-N,CCCCCCCC\C=C/CCCCCCCCNCCCN.CCCCCCCC\C=C/CCCCCCCC(O)=O.CCCCCCCC\C=C/CCCCCCCC(O)=O,-8.2501920599
A-220,"2-ethylhexyl 4-[(4-{[4-(tert-butylcarbamoyl)phenyl]amino}-6-[(4-{[(2-ethylhexyl)oxy]carbonyl}phenyl)amino]-1,3,5-triazin-2-yl)amino]benzoate",OSCJHTSDLYVCQC-UHFFFAOYSA-N,CCCCC(CC)COC(=O)c1ccc(Nc2nc(Nc3ccc(cc3)C(=O)NC(C)(C)C)nc(Nc4ccc(cc4)C(=O)OCC(CC)CCCC)n2)cc1,-8.1852587653