ID,Name,InChIKey,SMILES,Solubility
B-4469,antipyrine,VEQOALNAAJBPNY-UHFFFAOYSA-N,CN1N(C(=O)C=C1C)c2ccccc2,-0.5642
B-4470,promethazine,PWWVAXIEGOYWEE-UHFFFAOYSA-N,CC(CN1c2ccccc2Sc3ccccc13)N(C)C,-4.2597
B-4471,niridazole,RDXLYGJSWZYTFJ-UHFFFAOYSA-N,[O-][N+](=O)c1sc(nc1)N2CCNC2=O,-3.2169
B-4474,fluphenazine,PLDUPXSUYLZYBN-UHFFFAOYSA-N,OCCN1CCN(CCCN2c3ccccc3Sc4ccc(cc24)C(F)(F)F)CC1,-4.1488
B-4475,tubercidin,HDZZVAMISRMYHH-UHFFFAOYSA-N,Nc1ncnc2n(ccc12)C3OC(CO)C(O)C3O,-1.9515
B-4476,sulfathiozole,JNMRHUJNCSQMMB-UHFFFAOYSA-N,Nc1ccc(cc1)[S](=O)(=O)Nc2sccn2,-2.4248
B-4477,thiamylal,XLOMZPUITCYLMJ-UHFFFAOYSA-N,CCCC(C)C1(CC=C)C(=O)NC(=S)NC1=O,-3.4585
B-4480,theobromine,YAPQBXQYLJRXSA-UHFFFAOYSA-N,Cn1cnc2N(C)C(=O)NC(=O)c12,-2.7372
B-4481,phthalimide,XKJCHHZQLQNZHY-UHFFFAOYSA-N,O=C1NC(=O)c2ccccc12,-2.6114
B-4486,trifluorperazine,ZEWQUBUPAILYHI-UHFFFAOYSA-N,CN1CCN(CCCN2c3ccccc3Sc4ccc(cc24)C(F)(F)F)CC1,-4.5238
B-4487,sulfadimethoxine,ZZORFUFYDOWNEF-UHFFFAOYSA-N,COc1cc(N[S](=O)(=O)c2ccc(N)cc2)nc(OC)n1,-2.9565
B-4488,griseofulvin,IIUZTXTZRGLYTI-LKUJNTHKSA-N,COC1CC(=O)C[C@@H](C)[C@]12Oc3c(Cl)c(OC)cc(OC)c3C2=O,-4.611
B-4489,oxyphenbutazone,HFHZKZSRXITVMK-UHFFFAOYSA-N,CCCCC1C(=O)N(N(C1=O)c2ccc(O)cc2)c3ccccc3,-3.7329
B-4492,sulfamethiazole,VACCAVUAMIDAGB-UHFFFAOYSA-N,Cc1sc(N[S](=O)(=O)c2ccc(N)cc2)nn1,-2.4107
B-4493,erythritol,UNXHWFMMPAWVPI-UHFFFAOYSA-N,OCC(O)C(O)CO,0.6985
B-4494,ephedrine,KWGRBVOPPLSCSI-WPRPVWTQSA-N,CN[C@@H](C)[C@H](O)c1ccccc1,-0.4147
B-4495,allopurinol,OFCNXPDARWKPPY-UHFFFAOYSA-N,O=C1N=CN=C2NNC=C12,-2.3788
B-4496,carbutamide,VDTNNGKXZGSZIP-UHFFFAOYSA-N,CCCCNC(=O)N[S](=O)(=O)c1ccc(N)cc1,-2.1782
B-4497,brucine,RRKTZKIUPZVBMF-PLNGPGDESA-N,COc1cc2N3C4[C@@H]5C(CC3=O)OCC=C6CN7CC[C@]4([C@@H]7C[C@H]56)c2cc1OC,-2.0909
B-4501,sulfaphenazole,QWCJHSGMANYXCW-UHFFFAOYSA-N,Nc1ccc(cc1)[S](=O)(=O)Nc2ccnn2c3ccccc3,-2.3213
B-4502,eriodictyol,SBHXYTNGIZCORC-ZDUSSCGKSA-N,Oc1cc(O)c2C(=O)C[C@H](Oc2c1)c3ccc(O)c(O)c3,-3.6147
B-4503,sulfaperine,DZQVFHSCSRACSX-UHFFFAOYSA-N,Cc1cnc(N[S](=O)(=O)c2ccc(N)cc2)nc1,-2.82
B-4504,sulfameter,GPTONYMQFTZPKC-UHFFFAOYSA-N,COc1cnc(N[S](=O)(=O)c2ccc(N)cc2)nc1,-2.5843
B-4505,tolcyclamide,RIGBPMDIGYBTBJ-UHFFFAOYSA-N,Cc1ccc(cc1)[S](=O)(=O)NC(=O)NC2CCCCC2,-4.207
B-4506,sulfamethoxazole,JLKIGFTWXXRPMT-UHFFFAOYSA-N,Cc1onc(N[S](=O)(=O)c2ccc(N)cc2)c1,-2.6183
B-4507,trimethoprim,IEDVJHCEMCRBQM-UHFFFAOYSA-N,COc1cc(Cc2cnc(N)nc2N)cc(OC)c1OC,-2.8608
B-4510,deoxycorticosterone acetate,VPGRYOFKCNULNK-ACXQXYJUSA-N,CC(=O)OCC(=O)[C@H]1CC[C@H]2[C@@H]3CCC4=CC(=O)CC[C@]4(C)[C@H]3CC[C@]12C,-4.6301
B-4511,triamcinolone,GFNANZIMVAIWHM-OBYCQNJPSA-N,C[C@]12C[C@H](O)[C@@]3(F)[C@@H](CCC4=CC(=O)C=C[C@]34C)[C@@H]1C[C@@H](O)[C@]2(O)C(=O)CO,-3.6929
B-4512,betamethasone-17-valerate,SNHRLVCMMWUAJD-SUYDQAKGSA-N,CCCCC(=O)O[C@@]1([C@@H](C)C[C@H]2[C@@H]3CCC4=CC(=O)C=C[C@]4(C)[C@@]3(F)[C@@H](O)C[C@]12C)C(=O)CO,-4.7101
B-4514,o-aminophenol,CDAWCLOXVUBKRW-UHFFFAOYSA-N,Nc1ccccc1O,-0.7369
B-4515,"2-amino-4,6-dinitrophenol",QXYMVUZOGFVPGH-UHFFFAOYSA-N,Nc1cc(cc(c1O)[N+]([O-])=O)[N+]([O-])=O,-2.4862
B-4516,3-nitroaniline,XJCVRTZCHMZPBD-UHFFFAOYSA-N,Nc1cccc(c1)[N+]([O-])=O,-2.0611
B-4517,4-nitroaniline,TYMLOMAKGOJONV-UHFFFAOYSA-N,Nc1ccc(cc1)[N+]([O-])=O,-2.2782
B-4520,"2,4-dinitrophenol",UFBJCMHMOXMLKC-UHFFFAOYSA-N,Oc1ccc(cc1[N+]([O-])=O)[N+]([O-])=O,-2.5976
B-4522,4-methyl-2-nitrophenol,SYDNSSSQVSOXTN-UHFFFAOYSA-N,Cc1ccc(O)c(c1)[N+]([O-])=O,-2.3837
B-4524,4-hydroxybenzaldehyde,RGHHSNMVTDWUBI-UHFFFAOYSA-N,Oc1ccc(C=O)cc1,-0.9762
B-4525,"2,5-dinitrophenol",UWEZBKLLMKVIPI-UHFFFAOYSA-N,Oc1cc(ccc1[N+]([O-])=O)[N+]([O-])=O,-2.6796
B-4526,5-fluoro-2-nitrophenol,QQURWFRNETXFTN-UHFFFAOYSA-N,Oc1cc(F)ccc1[N+]([O-])=O,-2.05
B-4527,"4,6-dinitro-o-cresol",ZXVONLUNISGICL-UHFFFAOYSA-N,Cc1cc(cc(c1O)[N+]([O-])=O)[N+]([O-])=O,-3.0003
B-4528,"2,6-dinitrophenol",JCRIDWXIBSEOEG-UHFFFAOYSA-N,Oc1c(cccc1[N+]([O-])=O)[N+]([O-])=O,-2.7668
B-4529,2-nitroresorcinol,ZLCPKMIJYMHZMJ-UHFFFAOYSA-N,Oc1cccc(O)c1[N+]([O-])=O,-2.0734
B-4530,4-phenyl-2-nitrophenol,JDDNJJBXFOLPKX-UHFFFAOYSA-N,Oc1ccc(cc1[N+]([O-])=O)c2ccccc2,-4.4101
B-4531,4-(sec-butyl)-2-nitrophenol,GCDCKEORRIGZKI-UHFFFAOYSA-N,CCC(C)c1ccc(O)c(c1)[N+]([O-])=O,-3.8403
B-4532,p-aminosalicylic acid,WUBBRNOQWQTFEX-UHFFFAOYSA-N,Nc1ccc(C(O)=O)c(O)c1,-1.9572
B-4534,3-aminobenzoic acid,XFDUHJPVQKIXHO-UHFFFAOYSA-N,Nc1cccc(c1)C(O)=O,-1.3663
B-4536,"3,4-dihydroxybenzoic acid",YQUVCSBJEUQKSH-UHFFFAOYSA-N,OC(=O)c1ccc(O)c(O)c1,-0.9278
B-4539,4-hydroxy-3-methoxybenzoic acid,WKOLLVMJNQIZCI-UHFFFAOYSA-N,COc1cc(ccc1O)C(O)=O,-2.0496
B-4540,"3-amino-2,5-dichlorobenzoic acid",HSSBORCLYSCBJR-UHFFFAOYSA-N,Nc1cc(Cl)cc(C(O)=O)c1Cl,-2.4688
B-4541,4-aminobenzoic acid,ALYNCZNDIQEVRV-UHFFFAOYSA-N,Nc1ccc(cc1)C(O)=O,-1.3511
B-4542,"2,6-dihydroxybenzoic acid",AKEUNCKRJATALU-UHFFFAOYSA-N,OC(=O)c1c(O)cccc1O,-1.2074
B-4548,p-hydroxy butyl benzoate,QFOHBWFCKVYLES-UHFFFAOYSA-N,CCCCOC(=O)c1ccc(O)cc1,-2.9723
B-4550,methyl salicylate,OSWPMRLSEDHDFF-UHFFFAOYSA-N,COC(=O)c1ccccc1O,-1.313
B-4552,phenyl-4-aminosalicylate,DNVVZWSVACQWJE-UHFFFAOYSA-N,Nc1ccc(c(O)c1)C(=O)Oc2ccccc2,-4.5152
B-4553,methyl p-aminobenzoate,LZXXNPOYQCLXRS-UHFFFAOYSA-N,COC(=O)c1ccc(N)cc1,-1.5974
B-4554,"benzoic acid, 4-amino-,pentyl ester",VKYWCHMXHQTCJQ-UHFFFAOYSA-N,CCCCCOC(=O)c1ccc(N)cc1,-3.3499
B-4555,"benzoic acid,4-amino-,heptyl ester",IAHJVNSZPMIREM-UHFFFAOYSA-N,CCCCCCCOC(=O)c1ccc(N)cc1,-4.6001
B-4556,"benzoic acid,4-amino,octyl ester",XOEUGELJHSUYGP-UHFFFAOYSA-N,CCCCCCCCOC(=O)c1ccc(N)cc1,-5.3999
B-4558,"1,1-diethoxyethane",DHKHKXVYLBGOIT-UHFFFAOYSA-N,CCOC(C)OCC,-0.4291
B-4559,dimethoxymethane,NKDDWNXOKDWJAK-UHFFFAOYSA-N,COCOC,0.506
B-4561,paraldehyde,SQYNKIJPMDEDEG-UHFFFAOYSA-N,CC1OC(C)OC(C)O1,-0.0719
B-4562,diethoxymethane,KLKFAASOGCDTDT-UHFFFAOYSA-N,CCOCOCC,-0.1726
B-4563,dexamethasone,UREBDLICKHMUKA-CXSFZGCWSA-N,C[C@@H]1C[C@H]2[C@@H]3CCC4=CC(=O)C=C[C@]4(C)[C@@]3(F)[C@@H](O)C[C@]2(C)[C@@]1(O)C(=O)CO,-3.6444
B-4564,hydrocortisone acetate,ALEXXDVDDISNDU-JZYPGELDSA-N,CC(=O)OCC(=O)[C@@]1(O)CC[C@H]2[C@@H]3CCC4=CC(=O)CC[C@]4(C)[C@H]3[C@@H](O)C[C@]12C,-4.4577
B-4565,cortisone acetate,ITRJWOMZKQRYTA-RFZYENFJSA-N,CC(=O)OCC(=O)[C@@]1(O)CC[C@H]2[C@@H]3CCC4=CC(=O)CC[C@]4(C)[C@H]3C(=O)C[C@]12C,-4.3037
B-4566,corticosterone,OMFXVFTZEKFJBZ-HJTSIMOOSA-N,C[C@]12C[C@H](O)[C@H]3[C@@H](CCC4=CC(=O)CC[C@]34C)[C@@H]1CC[C@@H]2C(=O)CO,-3.2408
B-4569,prednisolone acetate,LRJOMUJRLNCICJ-JZYPGELDSA-N,CC(=O)OCC(=O)[C@@]1(O)CC[C@H]2[C@@H]3CCC4=CC(=O)C=C[C@]4(C)[C@H]3[C@@H](O)C[C@]12C,-4.3692
B-4570,cortisone,MFYSYFVPBJMHGN-ZPOLXVRWSA-N,C[C@]12CCC(=O)C=C1CC[C@H]3[C@@H]4CC[C@](O)(C(=O)CO)[C@@]4(C)CC(=O)[C@H]23,-3.1097
B-4571,progesterone,RJKFOVLPORLFTN-LEKSSAKUSA-N,CC(=O)[C@H]1CC[C@H]2[C@@H]3CCC4=CC(=O)CC[C@]4(C)[C@H]3CC[C@]12C,-4.5526
B-4572,17-methyltestosterone,GCKMFJBGXUYNAG-HLXURNFRSA-N,C[C@]1(O)CC[C@H]2[C@@H]3CCC4=CC(=O)CC[C@]4(C)[C@H]3CC[C@]12C,-3.9505
B-4573,testosterone,MUMGGOZAMZWBJJ-DYKIIFRCSA-N,C[C@]12CC[C@H]3[C@@H](CCC4=CC(=O)CC[C@]34C)[C@@H]1CC[C@@H]2O,-4.0908
B-4574,androstenedione,AEMFNILZOJDQLW-QAGGRKNESA-N,C[C@]12CC[C@H]3[C@@H](CCC4=CC(=O)CC[C@]34C)[C@@H]1CCC2=O,-3.6949
B-4575,deoxycorticosterone,ZESRJSPZRDMNHY-YFWFAHHUSA-N,C[C@]12CC[C@H]3[C@@H](CCC4=CC(=O)CC[C@]34C)[C@@H]1CC[C@@H]2C(=O)CO,-3.7446
B-4576,triamcinolone diacetate,XGMPVBXKDAHORN-RBWIMXSLSA-N,CC(=O)OCC(=O)[C@@]1(O)[C@@H](C[C@H]2[C@@H]3CCC4=CC(=O)C=C[C@]4(C)[C@@]3(F)[C@@H](O)C[C@]12C)OC(C)=O,-4.1297
B-4577,17-alpha-hydroxyprogesterone,DBPWSSGDRRHUNT-CEGNMAFCSA-N,CC(=O)[C@@]1(O)CC[C@H]2[C@@H]3CCC4=CC(=O)CC[C@]4(C)[C@H]3CC[C@]12C,-4.7076
B-4578,fludrocortisone,AAXVEMMRQDVLJB-BULBTXNYSA-N,C[C@]12C[C@H](O)[C@@]3(F)[C@@H](CCC4=CC(=O)CC[C@]34C)[C@@H]1CC[C@]2(O)C(=O)CO,-3.4342
B-4580,fluoromethalone,FAOZLTXFLGPHNG-KNAQIMQKSA-N,C[C@H]1C[C@H]2[C@@H]3CC[C@](O)(C(C)=O)[C@@]3(C)C[C@H](O)[C@]2(F)[C@@]4(C)C=CC(=O)C=C14,-4.0986
B-4581,dexamethasone acetate,AKUJBENLRBOFTD-RPRRAYFGSA-N,C[C@@H]1C[C@H]2[C@@H]3CCC4=CC(=O)C=C[C@]4(C)[C@@]3(F)[C@@H](O)C[C@]2(C)[C@@]1(O)C(=O)COC(C)=O,-4.9
B-4582,5-fluorouracil,GHASVSINZRGABV-UHFFFAOYSA-N,FC1=CNC(=O)NC1=O,-1.0689
B-4583,5-methyluracil,RWQNBRDOKXIBIV-UHFFFAOYSA-N,CC1=CNC(=O)NC1=O,-1.5187
B-4585,hydantoin,WJRBRSLFGCUECM-UHFFFAOYSA-N,O=C1CNC(=O)N1,-0.4016
B-4586,1-methyluracil,XBCXJKGHPABGSD-UHFFFAOYSA-N,CN1C=CC(=O)NC1=O,-0.7998
B-4590,cyclobarbital,WTYGAUXICFETTC-UHFFFAOYSA-N,CCC1(C(=O)NC(=O)NC1=O)C2=CCCCC2,-2.1693
B-4591,allobarbital,FDQGNLOWMMVRQL-UHFFFAOYSA-N,C=CCC1(CC=C)C(=O)NC(=O)NC1=O,-2.0608
B-4593,amobarbital,VIROVYVQCGLCII-UHFFFAOYSA-N,CCC1(CCC(C)C)C(=O)NC(=O)NC1=O,-2.5743
B-4597,aprobarbital,UORJNBVJVRLXMQ-UHFFFAOYSA-N,CC(C)C1(CC=C)C(=O)NC(=O)NC1=O,-1.712
B-4601,3-hydroxypyridine,GRFNBEZIAWKNCO-UHFFFAOYSA-N,Oc1cccnc1,-0.4557
B-4603,5-hydroxyquinoline,GYESAYHWISMZOK-UHFFFAOYSA-N,[O-]c1cccc2[nH+]cccc12,-2.5417
B-4604,6-hydroxyquinoline,OVYWMEWYEJLIER-UHFFFAOYSA-N,Oc1ccc2ncccc2c1,-2.1618
B-4605,anilazine,IMHBYKMAHXWHRP-UHFFFAOYSA-N,Clc1nc(Cl)nc(Nc2ccccc2Cl)n1,-4.5371
B-4609,terbutryn,IROINLKCQGIITA-UHFFFAOYSA-N,CCNc1nc(NC(C)(C)C)nc(SC)n1,-3.9847
B-4613,trietazine,HFBWPRKWDIRYNX-UHFFFAOYSA-N,CCNc1nc(Cl)nc(n1)N(CC)CC,-4.0601
B-4614,desethylatrazine,DFWFIQKMSFGDCQ-UHFFFAOYSA-N,CC(C)Nc1nc(N)nc(Cl)n1,-2.7063
B-4615,prometryne,AAEVYOVXGOFMJO-UHFFFAOYSA-N,CSc1nc(NC(C)C)nc(NC(C)C)n1,-3.8642
B-4616,cyanazine,MZZBPDKVEFVLFF-UHFFFAOYSA-N,CCNc1nc(Cl)nc(NC(C)(C)C#N)n1,-3.151
B-4617,terbumeton,BCQMBFHBDZVHKU-UHFFFAOYSA-N,CCNc1nc(NC(C)(C)C)nc(OC)n1,-3.2388
B-4618,2-bromopyridine,IMRWILPUOVGIMU-UHFFFAOYSA-N,Brc1ccccn1,-0.8806
B-4620,cycloleucine,NILQLFBWTXNUOE-UHFFFAOYSA-N,NC1(CCCC1)C(O)=O,-0.4122
B-4622,dl-phenylalanine,COLNVLDHVKWLRT-UHFFFAOYSA-N,NC(Cc1ccccc1)C(O)=O,-1.0657
B-4631,isophthalic acid,QQVIHTHCMHWDBS-UHFFFAOYSA-N,OC(=O)c1cccc(c1)C(O)=O,-3.2204
B-4633,"2,4-pyridinedicarboxylic acid",MJIVRKPEXXHNJT-UHFFFAOYSA-N,OC(=O)c1ccnc(c1)C(O)=O,-1.8268
B-4634,"2,5-pyridinedicarboxylic acid",LVPMIMZXDYBCDF-UHFFFAOYSA-N,OC(=O)c1ccc(nc1)C(O)=O,-2.1296
B-4635,"2,6-pyridinedicarboxylic acid",WJJMNDUMQPNECX-UHFFFAOYSA-N,OC(=O)c1cccc(n1)C(O)=O,-1.5241
B-4636,"3,4-pyridinedicarboxylic acid",MUYSADWCWFFZKR-UHFFFAOYSA-N,OC(=O)c1ccncc1C(O)=O,-1.8538
B-4637,"3,5-pyridinedicarboxylic acid",MPFLRYZEEAQMLQ-UHFFFAOYSA-N,OC(=O)c1cncc(c1)C(O)=O,-2.223
B-4638,nicotinic acid,PVNIIMVLHYAWGP-UHFFFAOYSA-N,OC(=O)c1cccnc1,-0.835
B-4640,"1-octanesulfonamide, n-(octylsulfonyl)-",GLIMMBJQTXCOMG-UHFFFAOYSA-N,CCCCCCCC[S](=O)(=O)N[S](=O)(=O)CCCCCCCC,-3.9145
B-4641,chloroacetamide,VXIVSQZSERGHQP-UHFFFAOYSA-N,NC(=O)CCl,-0.0166
B-4642,bromoacetamide,JUIKUQOUMZUFQT-UHFFFAOYSA-N,NC(=O)CBr,0.0643
B-4643,"butanamide, 2-chloro-2-ethyl-",AFVUGDZUMJEIHX-UHFFFAOYSA-N,CCC(Cl)(CC)C(N)=O,-1.0289
B-4645,"propanamide, 2,3-dichloro-",SQGUQSRDWXDLIH-UHFFFAOYSA-N,NC(=O)C(Cl)CCl,-0.5138
B-4646,n-methylacetanilide,LMTGCJANOQOGPI-UHFFFAOYSA-N,CN(C(C)=O)c1ccccc1,-0.951
B-4647,propachlor,MFOUDYKPLGXPGO-UHFFFAOYSA-N,CC(C)N(C(=O)CCl)c1ccccc1,-2.4806
B-4650,acetochlor,VTNQPKFIQCLBDU-UHFFFAOYSA-N,CCOCN(C(=O)CCl)c1c(C)cccc1CC,-3.0827
C-9,glycine,DHMQDGOQFOQNFH-UHFFFAOYSA-N,NCC(O)=O,0.92
C-18,alpha-terpineol,WUOACPNHFRMFPN-UHFFFAOYSA-N,CC1=CCC(CC1)C(C)(C)O,-1.91
C-20,isobutyl  carbamate,BRUZQRBVNRKLJG-UHFFFAOYSA-N,CC(C)COC(N)=O,-0.3
C-21,(-)-carveol;  5-isopropenyl-2-methyl-2-cyclohexen-1-ol,BAVONGHXFVOKBV-UHFFFAOYSA-N,CC(=C)C1CC=C(C)C(O)C1,-1.72
C-23,tert-butyl  carbamate,LFKDJXLFVYVEFG-UHFFFAOYSA-N,CC(C)(C)OC(N)=O,0.1
C-30,d-glucose;  dextrose,WQZGKKKJIJFFOK-UHFFFAOYSA-N,OCC1OC(O)C(O)C(O)C1O,0.74
C-31,"1,3-diethyl-2-thiourea;  n,n'-diethylthiourea",FLVIGYVXZHLUHP-UHFFFAOYSA-N,CCNC(=S)NCC,-1.46
C-32,"2,4-hexadienoic acid;  sorbic  acid",WSWCOQWTEOXDQX-MQQKCMAXSA-N,C\C=C\C=C\C(O)=O,-1.77
C-33,l-serine,MTCFGRXMJLQNBG-UHFFFAOYSA-N,NC(CO)C(O)=O,-0.02
C-43,hexachloroethane,VHHHONWQHHHLTI-UHFFFAOYSA-N,ClC(Cl)(Cl)C(Cl)(Cl)Cl,-3.94
C-45,glutaric  acid;  pentanedioic  acid,JFCQEDHGNNZCLN-UHFFFAOYSA-N,OC(=O)CCCC(O)=O,1
C-48,succinic  acid;  butanedioic acid,KDYFGRWQOYBRFD-UHFFFAOYSA-N,OC(=O)CCC(O)=O,-0.17
C-49,penicillamine;  2-amino-3-mercapto-3-methylbutanoic acid,VVNCNSJFMMFHPL-UHFFFAOYSA-N,CC(C)(S)C(N)C(O)=O,-0.13
C-54,"adipic  acid; 1,6-hexanedioic acid",WNLRTRBMVRJNCN-UHFFFAOYSA-N,OC(=O)CCCCC(O)=O,-0.82
C-59,dl-malic acid;  dl-2-hydroxybutanedioic acid;  hydroxysuccinic acid,BJEPYKJPYRNKOW-UHFFFAOYSA-N,OC(CC(O)=O)C(O)=O,0.64
C-63,phenol,ISWSIDIOOBJBQZ-UHFFFAOYSA-N,OC1=CC=CC=C1,-0.04
C-65,l-glutamine,ZDXPYRJPNDTMRX-UHFFFAOYSA-N,NC(CCC(N)=O)C(O)=O,-0.54
C-69,"methyprylon;  3,3-diethyl-5-methyl-2,4-piperidinedione",SIDLZWOQUZRBRU-UHFFFAOYSA-N,CCC1(CC)C(=O)NCC(C)C1=O,-0.38
C-72,l(+)-arginine,ODKSFYDXXFIFQN-UHFFFAOYSA-N,NC(CCCNC(N)=N)C(O)=O,0
C-74,methomyl,UHXUZOCRWCRNSJ-DAXSKMNVSA-N,CNC(=O)O\N=C(\C)SC,-1.21
C-75,isosorbide  dinitrate,MOYKHGMNXAOIAT-UHFFFAOYSA-N,[O-][N+](=O)OC1COC2C(COC12)O[N+]([O-])=O,-2.63
C-79,"5,5-dimethylbarbituric  acid",LAOZSCRCYVBSJA-UHFFFAOYSA-N,CC1(C)C(=O)NC(=O)NC1=O,-1.74
C-81,"1,3-phenylenediamine;  1,3-diaminobenzene",WZCQRUWWHSTZEM-UHFFFAOYSA-N,NC1=CC(=CC=C1)N,0.51
C-86,"spiro-5,5-dimethylenebarbituric  acid",PQVZDTWRGIHYCU-UHFFFAOYSA-N,O=C1NC(=O)C2(CC2)C(=O)N1,-1.89
C-88,1-cyclohexyl-3-decylurea,LPXYBLIRYGCMPQ-UHFFFAOYSA-N,CCCCCCCCCCNC(=O)NC1CCCCC1,-2.81
C-91,4-ethylphenol,HXDOZKJGKXYMEW-UHFFFAOYSA-N,CCC1=CC=C(O)C=C1,-1.4
C-94,5-ethyl-5-methylbarbituric  acid,RCFRTWDBBMGLGK-UHFFFAOYSA-N,CCC1(C)C(=O)NC(=O)NC1=O,-1.23
C-104,"spiro-5,5-trimethylenebarbituric acid;  6,8-diazaspiro[3.5]nonane-5,7,9-trione",VQDXQNNYGSEHPU-UHFFFAOYSA-N,O=C1NC(=O)C2(CCC2)C(=O)N1,-1.66
C-105,"1,2,4,5-tetramethylbenzene;  durene",SQNZJJAZBFDUTD-UHFFFAOYSA-N,CC1=CC(=C(C)C=C1C)C,-3.84
C-107,"1,4-dichlorobenzene",OCJBOOLMMGQPQU-UHFFFAOYSA-N,ClC1=CC=C(Cl)C=C1,-3.35
C-109,"5,5-diethylbarbituric  acid;  veronal;  barbital;  barbitone",FTOAOBMCPZCFFF-UHFFFAOYSA-N,CCC1(CC)C(=O)NC(=O)NC1=O,-1.42
C-111,5-allyl-5-methylbarbituric  acid;  5-allyl-5-methylbarbiturate,WMSQREUDUHHDDC-UHFFFAOYSA-N,CC1(CC=C)C(=O)NC(=O)NC1=O,-1.16
C-112,3-hydroxybenzaldehyde,IAVREABSGIHHMO-UHFFFAOYSA-N,OC1=CC=CC(=C1)C=O,-1.23
C-122,"phloroglucinol;  1,3,5-benzenetriol;  1,3,5-trihydroxybenzene",QCDYQQDYXPDABM-UHFFFAOYSA-N,OC1=CC(=CC(=C1)O)O,-1.05
C-124,5-ethyl-5-propylbarbituric  acid,XIBUBTQSOGWALU-UHFFFAOYSA-N,CCCC1(CC)C(=O)NC(=O)NC1=O,-1.49
C-128,ethallobarbital;  5-allyl-5-ethylbarbituric  acid,QPADNTZLUBYNEN-UHFFFAOYSA-N,CCC1(CC=C)C(=O)NC(=O)NC1=O,-1.61
C-132,"metharbital;  5,5-diethyl-1-methylbarbituric acid",FWJKNZONDWOGMI-UHFFFAOYSA-N,CCC1(CC)C(=O)NC(=O)N(C)C1=O,-2.1
C-133,"5,5-(spirocyclohexyl)barbituric  acid;  spiro-5,5-pentamethylenebarbituric acid",NBLIVIWUPTWDMD-UHFFFAOYSA-N,O=C1NC(=O)C2(CCCCC2)C(=O)N1,-3.06
C-137,4-methylbenzoic acid,LPNBBFKOUUSUDB-UHFFFAOYSA-N,CC1=CC=C(C=C1)C(O)=O,-2.53
C-144,5-methyl-5-(3-methyl-2-butenyl)barbituric  acid,CVWHRDJDXCEZGH-UHFFFAOYSA-N,CC(C)=CCC1(C)C(=O)NC(=O)NC1=O,-2.6
C-145,benzyl  carbamate,PUJDIJCNWFYVJX-UHFFFAOYSA-N,NC(=O)OCC1=CC=CC=C1,-0.35
C-146,methidathion,MEBQXILRKZHVCX-UHFFFAOYSA-N,COC1=NN(CS[P](=S)(OC)OC)C(=O)S1,-3.1
C-150,isoniazid;  isonicotinic acid hydrazide;  inh,QRXWMOHMRWLFEY-UHFFFAOYSA-N,NNC(=O)C1=CC=NC=C1,-0.04
C-151,butabarbital;  5-sec-butyl-5-ethylbarbituric acid,ZRIHAIZYIMGOAB-UHFFFAOYSA-N,CCC(C)C1(CC)C(=O)NC(=O)NC1=O,-2.39
C-152,2-fluorobenzoic  acid,NSTREUWFTAOOKS-UHFFFAOYSA-N,OC(=O)C1=C(F)C=CC=C1,-1.39
C-154,"5,5-diisopropylbarbituric acid",NSQYIEOSFPLTJA-UHFFFAOYSA-N,CC(C)C1(C(C)C)C(=O)NC(=O)NC1=O,-2.77
C-158,anthranilic  acid;  2-aminobenzoic  acid,RWZYAGGXGHYGMB-UHFFFAOYSA-N,NC1=C(C=CC=C1)C(O)=O,-1.52
C-161,3-hydroxybenzoic acid,IJFXRHURBJZNAO-UHFFFAOYSA-N,OC(=O)C1=CC(=CC=C1)O,-1.24
C-163,5-ethyl-5-pentylbarbituric acid;  5-amyl-5-ethylbarbituric  acid,XYGXSCVUMIDZRR-UHFFFAOYSA-N,CCCCCC1(CC)C(=O)NC(=O)NC1=O,-2.51
C-169,cymoxanil,XERJKGMBORTKEO-VZUCSPMQSA-N,CCNC(=O)NC(=O)C(=N/OC)/C#N,-2.3
C-170,4-nitrophenol,BTJIUGUIPKRLHP-UHFFFAOYSA-N,OC1=CC=C(C=C1)[N+]([O-])=O,-0.94
C-171,2-nitroaniline,DPJCXCZTLWNFOH-UHFFFAOYSA-N,NC1=C(C=CC=C1)[N+]([O-])=O,-1.96
C-173,hexamethylbenzene,YUWFEBAXEOLKSG-UHFFFAOYSA-N,CC1=C(C)C(=C(C)C(=C1C)C)C,-5.23
C-175,3-nitrophenol,RTZZCYNQPHTPPL-UHFFFAOYSA-N,OC1=CC(=CC=C1)[N+]([O-])=O,-1.07
C-177,pentyl 4-(3-cyclohexylureido)butanoate;  4-(3-cyclohexylureido)butanoic acid pentyl ester,RQHYVHQLEWVZJX-UHFFFAOYSA-N,CCCCCOC(=O)CCCNC(=O)NC1CCCCC1,-2.3
C-178,5-ethyl-5-(3-methyl-2-butenyl)barbituric  acid,VDVCBHJNKZNXKT-UHFFFAOYSA-N,CCC1(CC=C(C)C)C(=O)NC(=O)NC1=O,-2.25
C-179,prostaglandin f2alpha;  dinoprost,PXGPLTODNUVGFL-RTYMFESYSA-N,CCCCCC(O)/C=C/C1C(O)CC(O)C1C\C=C\CCCC(O)=O,-2.33
C-183,"5,5-(spirocyclohexyl)thiobarbituric  acid;  5,5-spiropentamethylene-2-thiobarbituric acid",XIOUPQUYEUYPAW-UHFFFAOYSA-N,O=C1NC(=S)NC(=O)C12CCCCC2,-3.46
C-188,hexethal;  5-ethyl-5-hexylbarbituric acid,PSTVHRSUNBSVIJ-UHFFFAOYSA-N,CCCCCCC1(CC)C(=O)NC(=O)NC1=O,-3.05
C-191,"spiro-5,5-cyclooctylbarbituric  acid;  spiro-5,5-heptamethylenebarbituric acid",RQNKKIXVVHCBKY-UHFFFAOYSA-N,O=C1NC(=O)C2(CCCCCCC2)C(=O)N1,-2.98
C-192,1-adamantan-1'-yl-3-decylurea,KDYRDODPBAFNHJ-UHFFFAOYSA-N,CCCCCCCCCCNC(=O)N[C]12C[CH]3[CH2]C([CH2][CH](C3)C1)C2,-5.83
C-194,vinbarbital;  5-ethyl-5-(1-methyl-1-butenyl)barbituric  acid,RAFOHKSPUDGZPR-VOTSOKGWSA-N,CC/C=C(C)/C1(CC)C(=O)NC(=O)NC1=O,-2.31
C-196,indole,SIKJAQJRHWYJAI-UHFFFAOYSA-N,[NH]1C=CC2=C1C=CC=C2,-1.21
C-197,talbutal;  5-allyl-5-sec-butylbarbituric  acid,BJVVMKUXKQHWJK-UHFFFAOYSA-N,CCC(C)C1(CC=C)C(=O)NC(=O)NC1=O,-2.02
C-201,stanolone;   androstanolone;  dihydrotestosterone,NVKAWKQGWWIWPM-UHFFFAOYSA-N,CC12CCC3C(CCC4CC(=O)CCC34C)C1CCC2O,-4.74
C-206,3-acetylaminophenol;  3-hydroxyacetanilide,QLNWXBAGRTUKKI-UHFFFAOYSA-N,CC(=O)NC1=CC=CC(=C1)O,-1.06
C-207,5-ethyl-5-heptylbarbituric  acid,FLJQERBDKWFELA-UHFFFAOYSA-N,CCCCCCCC1(CC)C(=O)NC(=O)NC1=O,-3.43
C-209,3-anisic  acid;  3-methoxybenzoic  acid,XHQZJYCNDZAGLW-UHFFFAOYSA-N,COC1=CC(=CC=C1)C(O)=O,-1.93
C-212,2-acetylaminophenol;  2-hydroxyacetanilide,ADVGKWPZRIDURE-UHFFFAOYSA-N,CC(=O)NC1=C(O)C=CC=C1,-2.13
C-217,2-anisic  acid;  2-methoxybenzoic  acid,ILUJQPXNXACGAN-UHFFFAOYSA-N,COC1=CC=CC=C1C(O)=O,-1.6
C-218,5-isopropyl-5-(3-methyl-2-butenyl)barbituric  acid,ZCDHRBAYNFWZBH-UHFFFAOYSA-N,CC(C)C1(CC=C(C)C)C(=O)NC(=O)NC1=O,-2.59
C-222,5-methylsalicylic  acid,DLGBEGBHXSAQOC-UHFFFAOYSA-N,CC1=CC(=C(O)C=C1)C(O)=O,-2.76
C-225,acephate;  orthene,YASYVMFAVPKPKE-UHFFFAOYSA-N,CO[P](=O)(NC(C)=O)SC,0.54
C-226,5-ethyl-5-octylbarbituric  acid,NTYYDJWPKCQQIB-UHFFFAOYSA-N,CCCCCCCCC1(CC)C(=O)NC(=O)NC1=O,-3.94
C-229,3-nitrobenzaldehyde,ZETIVVHRRQLWFW-UHFFFAOYSA-N,[O-][N+](=O)C1=CC=CC(=C1)C=O,-1.98
C-231,thiopental;  5-ethyl-5-(2-pentyl)-2-thiobarbituric  acid,IUJDSEJGGMCXSG-UHFFFAOYSA-N,CCCC(C)C1(CC)C(=O)NC(=S)NC1=O,-3.6
C-234,ethyl 4-hydroxybenzoate;  ethylparaben,NUVBSKCKDOMJSU-UHFFFAOYSA-N,CCOC(=O)C1=CC=C(O)C=C1,-2.2
C-236,5-ethylbarbituric acid,FMTLDVACNZDTQL-UHFFFAOYSA-N,CCC1C(=O)NC(=O)NC1=O,-0.92
C-239,5-aminosalicylic  acid;  mesalamine;  mesalazine,KBOPZPXVLCULAV-UHFFFAOYSA-N,NC1=CC(=C(O)C=C1)C(O)=O,-2.26
C-242,3-cyanophenyl  isothiocyanate; 3-isothiocyanatobenzonitrile,UXCYPHCFQAFVFH-UHFFFAOYSA-N,S=C=NC1=CC=CC(=C1)C#N,-3.19
C-244,methyl  4-methoxybenzoate,DDIZAANNODHTRB-UHFFFAOYSA-N,COC(=O)C1=CC=C(OC)C=C1,-2.34
C-246,5-ethyl-5-nonylbarbituric acid,KMXPZGOJCXKDSG-UHFFFAOYSA-N,CCCCCCCCCC1(CC)C(=O)NC(=O)NC1=O,-4.46
C-247,methyl 4-(3-adamantan-1-ylureido)butanoate; 4-(3-adamantan-1-ylureido)butanoic acid methyl ester,ZHGXICWKWFWBKM-UHFFFAOYSA-N,COC(=O)CCCNC(=O)N[C]12C[CH]3[CH2]C([CH2][CH](C3)C1)C2,-2.25
C-251,"2,5-dihydroxybenzoic   acid;  gentisic  acid",WXTMDXOMEHJXQO-UHFFFAOYSA-N,OC(=O)C1=CC(=CC=C1O)O,-0.85
C-254,5-tert-butyl-5-(3-methylbut-2-enyl)barbituric  acid,DRLSBGXFFUXZIN-UHFFFAOYSA-N,CC(C)=CCC1(C(=O)NC(=O)NC1=O)C(C)(C)C,-3.55
C-256,4-acetamidobenzaldehyde; 4-acetylaminobenzaldehyde,SKLUWKYNZNXSLX-UHFFFAOYSA-N,CC(=O)NC1=CC=C(C=O)C=C1,-1.63
C-261,heptabarbital;  5-(1-cyclohepten-1-yl)-5-ethylbarbituric acid,PAZQYDJGLKSCSI-UHFFFAOYSA-N,CCC1(C(=O)NC(=O)NC1=O)C2=CCCCCC2,-3
C-265,propylparaben;  propyl 4-hydroxybenzoate,QELSKZZBTMNZEB-UHFFFAOYSA-N,CCCOC(=O)C1=CC=C(O)C=C1,-2.68
C-266,"spiro-5,5-decamethylenebarbituric acid",COBKAOXSLALTLT-UHFFFAOYSA-N,O=C1NC(=O)C2(CCCCCCCCCC2)C(=O)N1,-4.59