ID,Name,InChIKey,SMILES,Solubility
B-506,"decanedioic acid, dimethyl ester",ALOUNLDAKADEEB-UHFFFAOYSA-N,COC(=O)CCCCCCCCC(=O)OC,-3.2831
B-508,"1-propyne, 3-bromo-",YORCIIVHUBAYBQ-UHFFFAOYSA-N,BrCC#C,-0.9022
B-509,1-butyne,KDKYADYSIPSCCQ-UHFFFAOYSA-N,CCC#C,-1.2753
B-510,1-propanethiol,SUVIGLJNEAMWEG-UHFFFAOYSA-N,CCCS,-1.6021
B-511,1-bromo-2-chloroethane,IBYHHJPAARCAIE-UHFFFAOYSA-N,ClCCBr,-1.3177
B-512,3-chloropropylene,OSDWBNJEKMUWAV-UHFFFAOYSA-N,ClCC=C,-1.3562
B-515,allylamine,VVJKKWFAADXIJK-UHFFFAOYSA-N,NCC=C,1.2434
B-517,"1,2-diaminoethane",PIICEJLVQHRZGT-UHFFFAOYSA-N,NCCN,1.2211
B-518,allyl alcohol,XXROGKLTLUQVRX-UHFFFAOYSA-N,OCC=C,1.236
B-520,ethylene glycol,LYCAIKOWRPUZTN-UHFFFAOYSA-N,OCCO,1.2071
B-521,glyoxal,LEQAOMBKQFMDFZ-UHFFFAOYSA-N,O=CC=O,1.2363
B-524,taurine,XOAAWQZATWQOTB-UHFFFAOYSA-N,NCC[S](O)(=O)=O,-0.1906
B-525,isethionic acid,SUMDYPCJJOFFON-UHFFFAOYSA-N,OCC[S](O)(=O)=O,0.8992
B-526,"2-methyl-2,4-pentanediol",SVTBMSDMJJWYQN-UHFFFAOYSA-N,CC(O)CC(C)(C)O,0.9275
B-527,sarin,DYAHQFWOVKZOOW-UHFFFAOYSA-N,CC(C)O[P](C)(F)=O,0.8536
B-529,tetraethyl pyrophosphate,IDCBOTIENDVCBQ-UHFFFAOYSA-N,CCO[P](=O)(OCC)O[P](=O)(OCC)OCC,0.5373
B-530,octamethyltrisiloxane,CXQXSVUQTKDNFP-UHFFFAOYSA-N,C[Si](C)(C)O[Si](C)(C)O[Si](C)(C)C,-6.8424
B-532,trichlorourethan,QPLJYAKLSCXZSF-UHFFFAOYSA-N,NC(=O)OCC(Cl)(Cl)Cl,-1.2843
B-533,4-methoxy-4-methyl-2-pentanone,KOKPBCHLPVDQTK-UHFFFAOYSA-N,COC(C)(C)CC(C)=O,0.3326
B-534,1-bromo-3-methylbutane,YXZFFTJAHVMMLF-UHFFFAOYSA-N,CC(C)CCBr,-2.886
B-536,"1,3-butanediol",PUPZLCDOIYMWBV-UHFFFAOYSA-N,CC(O)CCO,1.0452
B-537,aldol,HSJKGGMUJITCBW-UHFFFAOYSA-N,CC(O)CC=O,1.055
B-538,"acetamide, 2-cyano-",DGJMPUGMZIKDRO-UHFFFAOYSA-N,NC(=O)CC#N,0.1893
B-539,butyric acid,FERIUCNNQQJTOY-UHFFFAOYSA-N,CCCC(O)=O,-0.1669
B-542,n-methyl glycine,FSYKKLYZXJSNPZ-UHFFFAOYSA-N,CNCC(O)=O,0.5273
B-544,2-dimethylaminoethanol,UEEJHVSXFDXPFK-UHFFFAOYSA-N,CN(C)CCO,1.0499
B-545,"2,4-dimethylpentane",BZHMBWZPUJHVEE-UHFFFAOYSA-N,CC(C)CC(C)C,-4.2605
B-546,4-methyl-2-pentanol,WVYWICLMDOOCFB-UHFFFAOYSA-N,CC(C)CC(C)O,-0.7945
B-549,acetic anhydride,WFDIJRYMOXRFFG-UHFFFAOYSA-N,CC(=O)OC(C)=O,0.0702
B-550,"2(5h)-furanone, 5-methylene-",RNYZJZKPGHQTJR-UHFFFAOYSA-N,C=C1OC(=O)C=C1,-0.9827
B-551,diethyl 3-methyl-5-pyrazolyl phosphate,CDCTYRNLXFEDHC-UHFFFAOYSA-N,CCO[P](=O)(OCC)Oc1cc(C)[nH]n1,-2.3696
B-552,m-chlorotoluene,OSOUNOBYRMOXQQ-UHFFFAOYSA-N,Cc1cccc(Cl)c1,-3.5228
B-553,metaldehyde (tetramer),GKKDCARASOJPNG-UHFFFAOYSA-N,CC1OC(C)OC(C)OC(C)O1,-2.8997
B-554,ethyl isovalerate,PPXUHEORWJQRHJ-UHFFFAOYSA-N,CCOC(=O)CC(C)C,-1.8135
B-556,"2,4,6-collidine",BWZVCCNYKMEVEX-UHFFFAOYSA-N,Cc1cc(C)nc(C)c1,-0.5394
B-561,4-methyl-2-pentyl acetate,CPIVYSAVIPTCCX-UHFFFAOYSA-N,CC(C)CC(C)OC(C)=O,-2.0451
B-563,4-methylpyridine,FKNQCJSGGFJEIZ-UHFFFAOYSA-N,Cc1ccncc1,1.0309
B-565,thiophenol,RMVRSNDYEFQCLF-UHFFFAOYSA-N,Sc1ccccc1,-2.1204
B-566,3-methylpyridine,ITQTTZVARXURQS-UHFFFAOYSA-N,Cc1cccnc1,1.0309
B-567,n-methylmorpholine,SJRJJKPEHAURKC-UHFFFAOYSA-N,CN1CCOCC1,0.995
B-569,"piperazine, 2-methyl-",JOMNTHCQHJPVAZ-UHFFFAOYSA-N,CC1CNCCN1,0.6378
B-570,2-methylpyrazine,CAWHJQAVHZEVTJ-UHFFFAOYSA-N,Cc1cnccn1,1.0263
B-572,dibutyl sebacate,PYGXAGIECVVIOZ-UHFFFAOYSA-N,CCCCOC(=O)CCCCCCCCC(=O)OCCCC,-3.8955
B-573,"hexanedioic acid, bis(2-ethoxyethyl) ester",NJEMMCIKSMMBDM-UHFFFAOYSA-N,CCOCCOC(=O)CCCCC(=O)OCCOCC,-2.065
B-574,3-hexyn-2-ol,IFCAMPHNVKBSTF-UHFFFAOYSA-N,CCC#CC(C)O,-0.4121
B-575,isobutyl vinyl ether,OZCMOJQQLBXBKI-UHFFFAOYSA-N,CC(C)COC=C,-1.5236
B-578,"1,3-dibromopropane",VEFLKXRACNJHOV-UHFFFAOYSA-N,BrCCCBr,-2.0747
B-580,2-pentene,QMMOXUPEWRXHJS-HYXAFXHYSA-N,CC\C=C/C,-2.5384
B-581,n-butylamine,HQABUPZFAYXKJW-UHFFFAOYSA-N,CCCCN,1.1359
B-582,ethylene cyanohydrin,WSGYTJNNHPZFKR-UHFFFAOYSA-N,OCCC#N,1.1483
B-583,butanethiol,WQAQPCDUOCURKW-UHFFFAOYSA-N,CCCCS,-2.1792
B-585,"ethanol, 2-hydrazino-",GBHCABUWWQUMAJ-UHFFFAOYSA-N,NNCCO,1.1186
B-586,2-methoxyethanol,XNWFRZJHXBZDAG-UHFFFAOYSA-N,COCCO,1.1186
B-592,sec-butylacetate,GJRQTCIYDGXPES-UHFFFAOYSA-N,CC(C)COC(C)=O,-1.2657
B-593,"acetone, semicarbazone",HQDAJGNZGNZGCO-UHFFFAOYSA-N,CC(C)=NNC(N)=O,-0.2674
B-594,ethyl decanoate,RGXWDWUGBIJHDO-UHFFFAOYSA-N,CCCCCCCCCC(=O)OCC,-4.1006
B-595,diethyl sebacate,ONKUXPIBXRRIDU-UHFFFAOYSA-N,CCOC(=O)CCCCCCCCC(=O)OCC,-3.5091
B-596,isoamyl formate,XKYICAQFSCFURC-UHFFFAOYSA-N,CC(C)CCOC=O,-1.5206
B-597,2-methoxyethyl acetate,XLLIQLLCWZCATF-UHFFFAOYSA-N,COCCOC(C)=O,0.9276
B-599,"1,4-dichlorobutane",KJDRSWPQXHESDQ-UHFFFAOYSA-N,ClCCCCCl,-0.92
B-600,"1,4-dichloro-2-butene(trans)",FQDIANVAWVHZIR-OWOJBTEDSA-N,ClC/C=C/CCl,-2.1675
B-601,n-pentylamine,DPBLXKKOBLCELK-UHFFFAOYSA-N,CCCCCN,1.0597
B-605,1-pentanethiol,ZRKMQKLGEQPLNS-UHFFFAOYSA-N,CCCCCS,-2.8248
B-607,2-chloroethyl vinyl ether,DNJRKFKAFWSXSE-UHFFFAOYSA-N,ClCCOC=C,-2.3951
B-608,2-ethoxyethanol,ZNQVEEAIQZEUHB-UHFFFAOYSA-N,CCOCCO,1.0452
B-609,piperazine,GLUUGHFHXGJENI-UHFFFAOYSA-N,C1CNCCN1,1.0648
B-611,morpholine,YNAVUWVOSKDBBP-UHFFFAOYSA-N,C1COCCN1,1.0599
B-613,diisobutylamine,OBYVIBDTOCAXSN-OCAPTIKFSA-O,CC[C@H](C)[NH2+][C@H](C)CC,-1.769
B-615,"acetic acid, 2,2'-oxybis-",QEVGZEDELICMKH-UHFFFAOYSA-N,OC(=O)COCC(O)=O,0.4927
B-617,heptanoic acid,MNWFXJYAOYHMED-UHFFFAOYSA-N,CCCCCCC(O)=O,-1.6646
B-618,ethoxyethylacetate,SVONRAPFKPVNKG-UHFFFAOYSA-N,CCOCCOC(C)=O,0.2716
B-620,decanedioic acid,CXMXRPHRNRROMY-UHFFFAOYSA-N,OC(=O)CCCCCCCCC(O)=O,-2.3059
B-621,"triethylene glycol, dinitrate",AGCQZYRSTIRJFM-UHFFFAOYSA-N,[O-][N+](=O)OCCOCCOCCO[N+]([O-])=O,-1.561
B-623,diethylenetriamine,RPNUMPOLZDHAAY-UHFFFAOYSA-N,NCCNCCN,0.9864
B-633,diethylene glycol monomethyl ether,SBASXUCJHJRPEV-UHFFFAOYSA-N,COCCOCCO,0.9203
B-634,n-nonane,BKIMMITUMNQMOS-UHFFFAOYSA-N,CCCCCCCCC,-5.7657
B-637,diethylene glycol monoethyl ether,XXJWXESWEXIICW-UHFFFAOYSA-N,CCOCCOCCO,0.8723
B-638,bis(2-chloroethoxy)methane,NLXGURFLBLRZRO-UHFFFAOYSA-N,ClCCOCOCCCl,-1.3461
B-640,2-butoxyethanol acetate,NQBXSWAWVZHKBZ-UHFFFAOYSA-N,CCCCOCCOC(C)=O,-1.2504
B-643,"1,2-bis(2-chloroethoxy)ethane",AGYUOJIYYGGHKV-UHFFFAOYSA-N,ClCCOCCOCCCl,-0.9955
B-645,diethylene glycol mono-n-butyl ether,OAYXUHPQHDHDDZ-UHFFFAOYSA-N,CCCCOCCOCCO,0.7899
B-646,methoxy triethylene glycol,JLGLQAWTXXGVEM-UHFFFAOYSA-N,COCCOCCOCCO,0.7846
B-647,bis (2-ethoxy ethyl)  ether,RRQYJINTUHWNHW-UHFFFAOYSA-N,CCOCCOCCOCC,0.7899
B-648,ethoxytriethylene glycol,WFSMVVDJSNMRAR-UHFFFAOYSA-N,CCOCCOCCOCCO,0.749
B-650,"ethanol, 2- 2-(hexyloxy)ethoxy -",GZMAAYIALGURDQ-UHFFFAOYSA-N,CCCCCCOCCOCCO,-1.049
B-655,eicosane,CBFCDTFDPHXCNY-UHFFFAOYSA-N,CCCCCCCCCCCCCCCCCCCC,-8.1724
B-656,propoxur,ISRUGXGCCGIOQO-UHFFFAOYSA-N,CNC(=O)Oc1ccccc1OC(C)C,-2.0512
B-661,dimefox,PGJBQBDNXAZHBP-UHFFFAOYSA-N,CN(C)[P](F)(=O)N(C)C,0.8121
B-662,chlorendic acid,DJKGDNKYTKCJKD-UHFFFAOYSA-N,OC(=O)C1C(C(O)=O)C2(Cl)C(=C(Cl)C1(Cl)C2(Cl)Cl)Cl,-2.0457
B-663,2-amino-2-methylpropanediol,UXFQFBNBSPQBJW-UHFFFAOYSA-N,CC(N)(CO)CO,0.9782
B-665,"2,2-diethyl-1,3-propanediol",XRVCFZPJAHWYTB-UHFFFAOYSA-N,CCC(CC)(CO)CO,0.1798
B-667,octyldiphenyl phosphate,YAFOVCNAQTZDQB-UHFFFAOYSA-N,CCCCCCCCO[P](=O)(Oc1ccccc1)Oc2ccccc2,-6.4131
B-668,diphenylmethyl phosphate,VOWPVJACXJNHBC-UHFFFAOYSA-N,CO[P](=O)(Oc1ccccc1)Oc2ccccc2,-2.1209
B-669,tri-2-chloroethyl phosphate,HQUQLFOMPYWACS-UHFFFAOYSA-N,ClCCO[P](=O)(OCCCl)OCCCl,-1.6105
B-670,ethoate methyl,DICRHEJCQXFJBY-UHFFFAOYSA-N,CCNC(=O)CS[P](=S)(OC)OC,-1.4567
B-671,aldicarb,QGLZXHRNAYXIBU-WEVVVXLNSA-N,CNC(=O)O\N=C\C(C)(C)SC,-1.4991
B-672,hydroxyacetone,XLSMFKSTNGKWQX-UHFFFAOYSA-N,CC(=O)CO,1.1303
B-673,isopropenyl methyl ether,YOWQWFMSQCOSBA-UHFFFAOYSA-N,COC(C)=C,1.142
B-674,tetrafluoroethylene,BFKJFAAPBSQJPD-UHFFFAOYSA-N,FC(F)=C(F)F,-2.8001
B-675,"1-(hydroxymethyl)-5,5-dimethylhydantoin",SIQZJFKTROUNPI-UHFFFAOYSA-N,CC1(C)N(CO)C(=O)NC1=O,0.8009
B-676,tetradifon,MLGCXEBRWGEOQX-UHFFFAOYSA-N,Clc1ccc(cc1)[S](=O)(=O)c2cc(Cl)c(Cl)cc2Cl,-6.6594
B-678,1-amino-4-hydroxyanthraquinone,AQXYVFBSOOBBQV-UHFFFAOYSA-N,Nc1ccc(O)c2C(=O)c3ccccc3C(=O)c12,-3.824
B-679,"1,5-anthraquinonedisulfonic acid",OZTBHAGJSKTDGM-UHFFFAOYSA-N,O[S](=O)(=O)c1cccc2C(=O)c3c(cccc3[S](O)(=O)=O)C(=O)c12,0.2572
B-680,2-aminoanthraquinone,XOGPDSATLSAZEK-UHFFFAOYSA-N,Nc1ccc2C(=O)c3ccccc3C(=O)c2c1,-6.1366
B-682,bis(methoxyethyl)phthalate,HSUIVCLOAAJSRE-UHFFFAOYSA-N,COCCOC(=O)c1ccccc1C(=O)OCCOC,-1.5213
B-683,dioctyl phthalate,MQIUGAXCHLFZKX-UHFFFAOYSA-N,CCCCCCCCOC(=O)c1ccccc1C(=O)OCCCCCCCC,-7.2493
B-684,hydrastine,JZUTXVTYJDCMDU-UHFFFAOYSA-N,COc1ccc2C(OC(=O)c2c1OC)C3N(C)CCc4cc5OCOc5cc34,-4.1065
B-686,"1-naphthalenamine, n-ethyl-",KDFFXYVOTKKBDI-UHFFFAOYSA-N,CCNc1cccc2ccccc12,-3.1922
B-687,"1,3-dichloro-5,5-dimethylhydantoin",KEQGZUUPPQEDPF-UHFFFAOYSA-N,CC1(C)N(Cl)C(=O)N(Cl)C1=O,-2.5955
B-690,4-chloro-1-nitro-2(trifluoromethyl)benzene,CFPIGEXZPWTNOR-UHFFFAOYSA-N,[O-][N+](=O)c1ccc(Cl)cc1C(F)(F)F,-3.3533
B-691,pyridaphenthion,CXJSOEPQXUCJSA-UHFFFAOYSA-N,CCO[P](=S)(OCC)OC1=NN(C(=O)C=C1)c2ccccc2,-3.5319
B-692,"p-(2,4-dinitroaniline)phenol",BCPQALWAROJVLE-UHFFFAOYSA-N,Oc1ccc(Nc2ccc(cc2[N+]([O-])=O)[N+]([O-])=O)cc1,-5.444
B-693,"2-naphthalenesulfonic acid, 4-hydroxy-6-(phenyla",QEAYLNJEDDOYNQ-UHFFFAOYSA-N,Oc1cc(cc2ccc(Nc3ccccc3)cc12)[S](O)(=O)=O,-1.9763
B-694,isolan,RNNBHZYEKNHLKT-UHFFFAOYSA-N,CC(C)n1nc(C)cc1OC(=O)N(C)C,0.6752
B-695,bis (2-hydroxy-3tert-butyl-5-methylphenyl) metha,KGRVJHAUYBGFFP-UHFFFAOYSA-N,Cc1cc(Cc2cc(C)cc(c2O)C(C)(C)C)c(O)c(c1)C(C)(C)C,-7.2311
B-696,dimorpholamine,HZTMGWSBSDLALI-UHFFFAOYSA-N,CCCCN(CCN(CCCC)C(=O)N1CCOCC1)C(=O)N2CCOCC2,0.0985
B-698,"benzenemethanol, 4-chloro-.alpha.-phenyl-",AJYOOHCNOXWTKJ-UHFFFAOYSA-N,OC(c1ccccc1)c2ccc(Cl)cc2,-3.4886
B-700,"benzoic acid, 2-(methylamino)-",WVMBPWMAQDVZCM-UHFFFAOYSA-N,CNc1ccccc1C(O)=O,-2.8784
B-701,bianisidine,NUIURNJTPRWVAP-UHFFFAOYSA-N,Cc1cc(ccc1N)c2ccc(N)c(C)c2,-2.213
B-703,"benzaldehyde, 3,4-dimethoxy-",WJUFSDZVCOTFON-UHFFFAOYSA-N,COc1ccc(C=O)cc1OC,-1.4199
B-704,"benzaldehyde, 4-ethoxy-3-methoxy-",BERFDQAMXIBOHM-UHFFFAOYSA-N,CCOc1ccc(C=O)cc1OC,-2.1913
B-705,5-chloro-2-hydroxydiphenylmethane,NCKMMSIFQUPKCK-UHFFFAOYSA-N,Oc1ccc(Cl)cc1Cc2ccccc2,-3.1666
B-707,1h-purine,KDCGOANMDULRCW-UHFFFAOYSA-N,[nH]1cnc2ncncc12,0.6194
B-708,"2,2'-dithiobisbenzothiazole",AFZSMODLJJCVPP-UHFFFAOYSA-N,S(Sc1sc2ccccc2n1)c3sc4ccccc4n3,-4.5218
B-709,pyrethrin i,ROVGZAWFACYCSP-VUMXUWRFSA-N,CC(C)=C[C@@H]1[C@@H](C(=O)O[C@H]2CC(=O)C(=C2C)C\C=C/C=C)C1(C)C,-6.2155
B-710,pyrethrin ii,VJFUPGQZSXIULQ-XIGJTORUSA-N,COC(=O)C(/C)=C/[C@@H]1[C@@H](C(=O)O[C@H]2CC(=O)C(=C2C)C\C=C/C=C)C1(C)C,-4.6168
B-713,propyl gallate,ZTHYODDOHIVTJV-UHFFFAOYSA-N,CCCOC(=O)c1cc(O)c(O)c(O)c1,-1.7827
B-714,"1,3,5,-trinitrohexahydro-1,3,5-triazine",XTFIVUDBNACUBN-UHFFFAOYSA-N,[O-][N+](=O)N1CN(CN(C1)[N+]([O-])=O)[N+]([O-])=O,-3.5706
B-715,dimetan,ITEQSCBLCCNACE-UHFFFAOYSA-N,CN(C)C(=O)OC1=CC(=O)CC(C)(C)C1,-0.8477
B-718,hydrazobenzene,YBQZXXMEJHZYMB-UHFFFAOYSA-N,N(Nc1ccccc1)c2ccccc2,-2.921
B-719,2-anilinoethanol,MWGATWIBSKHFMR-UHFFFAOYSA-N,OCCNc1ccccc1,-0.4745
B-724,succinyl peroxide,MKTOIPPVFPJEQO-UHFFFAOYSA-N,OC(=O)CCC(=O)OOC(=O)CCC(O)=O,-0.8471
B-725,ethyl nonanoate,BYEVBITUADOIGY-UHFFFAOYSA-N,CCCCCCCCC(=O)OCC,-3.8007
B-726,"3-methylene-7-methyl-1,6-octadiene  (myrcene)",UAHWPYUMFXYFJY-UHFFFAOYSA-N,CC(C)=CCCC(=C)C=C,-4.3861
B-728,4-hydroxy-4-methyl-2-pentanone,SWXVUIWOUIDPGS-UHFFFAOYSA-N,CC(=O)CC(C)(C)O,0.9349
B-731,dioctyl adipate,NEHDRDVHPTWWFG-UHFFFAOYSA-N,CCCCCCCCOC(=O)CCCCC(=O)OCCCCCCCC,-5.6768
B-732,1-[(2-aminoethyl)amino]-2-propanol,CWKVFRNCODQPDB-UHFFFAOYSA-N,CC(O)CNCCN,0.9275
B-734,isoamyl acetate,MLFHJEHSLIIPHL-UHFFFAOYSA-N,CC(C)CCOC(C)=O,-1.8135
B-735,"acetic acid, 2,2'-thiobis-",UVZICZIVKIMRNE-UHFFFAOYSA-N,OC(=O)CSCC(O)=O,0.4255
B-736,octanal,NUJGJRNETVAIRJ-UHFFFAOYSA-N,CCCCCCCC=O,-2.3598
B-737,diethylene glycol monobutyl ether acetate,VXQBJTKSVGFQOL-UHFFFAOYSA-N,CCCCOCCOCCOC(C)=O,-0.8188
B-738,n-decane,DIOQZVSQGTUSAI-UHFFFAOYSA-N,CCCCCCCCCC,-6.4372
B-740,n-dodecylamine,JRBPAEWTRLWTQC-UHFFFAOYSA-N,CCCCCCCCCCCCN,-3.3759
B-742,methane arsonate,QYPPRTNMGCREIM-UHFFFAOYSA-N,C[As](O)(O)=O,0.2622
B-743,tetrakis(hydroxymethyl)phosphonium chloride,AKXUUJCMWZFYMV-UHFFFAOYSA-M,[Cl-].OC[P+](CO)(CO)CO,0.322
B-744,2-amino-2-methyl-1-propanol,CBTVGIZVANVGBH-UHFFFAOYSA-N,CC(C)(N)CO,1.0499
B-745,"1,2-dibromotetrafluoroethane",KVBKAPANDHPRDG-UHFFFAOYSA-N,FC(F)(Br)C(F)(F)Br,-4.9376
B-746,camphoric acid,LSPHULWDVZXLIL-LDWIPMOCSA-L,CC1(C)[C@H](CC[C@@]1(C)C([O-])=O)C([O-])=O,-1.4207
B-749,sucrose octaacetate,ZIJKGAXBCRWEOL-SAXBRCJISA-N,CC(=O)OC[C@H]1O[C@H](O[C@]2(COC(C)=O)O[C@H](COC(C)=O)[C@@H](OC(C)=O)[C@@H]2OC(C)=O)[C@H](OC(C)=O)[C@@H](OC(C)=O)[C@@H]1OC(C)=O,-2.8726
B-750,"cyclohexanol, 1-ethynyl-, carbamate",GXRZIMHKGDIBEW-UHFFFAOYSA-N,NC(=O)OC1(CCCCC1)C#C,-1.8253
B-751,dipentaerythritol,TXBCBTDQIULDIA-UHFFFAOYSA-N,OCC(CO)(CO)COCC(CO)(CO)CO,-1.9582
B-752,"tris(2,3-dibromopropyl) phosphate",PQYJRMFWJJONBO-UHFFFAOYSA-N,BrCC(Br)CO[P](=O)(OCC(Br)CBr)OCC(Br)CBr,-4.9405
B-753,demeton-s,GRPRVIYRYGLIJU-UHFFFAOYSA-N,CCO[P](=O)(OCC)SCCSCC,-2.1112
B-754,"5,5-dimethyl-1,3-cyclohexanedione",BADXJIPKFRBFOT-UHFFFAOYSA-N,CC1(C)CC(=O)CC(=O)C1,-1.5276
B-755,oxanamide,WBLPIVIXQOFTPQ-UHFFFAOYSA-N,CCCC1OC1(CC)C(N)=O,-1.1745
B-756,hydroxyurea,VSNHCAURESNICA-UHFFFAOYSA-N,NC(=O)NO,1.1189
B-757,pyruvic acid,LCTONWCANYUPML-UHFFFAOYSA-N,CC(=O)C(O)=O,1.0552
B-759,trimethadione,IRYJRGCIQBGHIV-UHFFFAOYSA-N,CN1C(=O)OC(C)(C)C1=O,-0.4568
B-760,"benzamide, n- (4-aminophenyl)sulfonyl -",PBCZLFBEBARBBI-UHFFFAOYSA-N,Nc1ccc(cc1)[S](=O)(=O)NC(=O)c2ccccc2,-2.9501
B-762,silver lactate,CUPCAVOUAWGFEI-UHFFFAOYSA-N,[Ag+].CC([O-])C(O)=O,-0.4702
B-763,"2,5-pyrrolidinedione, 1-bromo-",PCLIMKBDDGJMGD-UHFFFAOYSA-N,BrN1C(=O)CCC1=O,-1.0831
B-764,"1-chloro-2,5-pyrrolidinedione",JRNVZBWKYDBUCA-UHFFFAOYSA-N,ClN1C(=O)CCC1=O,-0.9702
B-765,ursodeoxycholic acid,RUDATBOHQWOJDD-UZVSRGJWSA-N,C[C@H](CCC(O)=O)[C@H]1CC[C@H]2[C@@H]3[C@@H](O)C[C@@H]4C[C@H](O)CC[C@]4(C)[C@H]3CC[C@]12C,-4.2929
B-768,noscapine,AKNNEGZIBPJZJG-MSOLQXFVSA-N,COc1ccc2[C@H](OC(=O)c2c1OC)[C@@H]3N(C)CCc4cc5OCOc5c(OC)c34,-3.1393
B-769,1-hydroxyanthraquinone,BTLXPCBPYBNQNR-UHFFFAOYSA-N,Oc1cccc2C(=O)c3ccccc3C(=O)c12,-4.4213
B-770,"2,4,6-trinitrobenzoic acid",KAQBNBSMMVTKRN-UHFFFAOYSA-N,OC(=O)c1c(cc(cc1[N+]([O-])=O)[N+]([O-])=O)[N+]([O-])=O,-1.0977
B-771,"8-quinolinol,5-chloro-",CTQMJYWDVABFRZ-UHFFFAOYSA-N,Oc1ccc(Cl)c2cccnc12,-3.9756
B-772,"2-cyclohexyl-4,6-dinitrophenol",QJYHUJAGJUHXJN-UHFFFAOYSA-N,Oc1c(cc(cc1[N+]([O-])=O)[N+]([O-])=O)C2CCCCC2,-4.2492
B-773,2-phenylcinchoninic acid,YTRMTPPVNRALON-UHFFFAOYSA-N,OC(=O)c1cc(nc2ccccc12)c3ccccc3,-3.1926
B-774,npa (naptalam),JXTHEWSKYLZVJC-UHFFFAOYSA-N,OC(=O)c1ccccc1C(=O)Nc2cccc3ccccc23,-3.1633
B-775,"naphthalene-1,3-diol",XOOMNEFVDUTJPP-UHFFFAOYSA-N,Oc1cc(O)c2ccccc2c1,-1.9493
B-776,captan,LDVVMCZRFWMZSG-UHFFFAOYSA-N,ClC(Cl)(Cl)SN1C(=O)C2CC=CCC2C1=O,-4.7704
B-777,folpet,HKIOYBQGHSTUDB-UHFFFAOYSA-N,ClC(Cl)(Cl)SN1C(=O)c2ccccc2C1=O,-5.569
B-778,3-indolebutyric acid,JTEDVYBZBROSJT-UHFFFAOYSA-N,OC(=O)CCCc1c[nH]c2ccccc12,-2.9101
B-780,"phenol, 2,4-dichloro-3,5-dimethyl-",IYOLBFFHPZOQGW-UHFFFAOYSA-N,Cc1cc(O)c(Cl)c(C)c1Cl,-2.9801
B-781,"3,5-diiodosalicylic acid",DHZVWQPHNWDCFS-UHFFFAOYSA-N,OC(=O)c1cc(I)cc(I)c1O,-3.307
B-783,"benzoic acid, 2-(acetyloxy)-, phenyl ester",PSBAIJVSCTZDDB-UHFFFAOYSA-N,CC(=O)Oc1ccccc1C(=O)Oc2ccccc2,-4.1077
B-785,4-amino-4'-chlorodiphenyl,OREQWMWYRYXCDF-UHFFFAOYSA-N,Nc1ccc(cc1)c2ccc(Cl)cc2,-4.6383
B-786,"1,3-diphenyl-1-triazene",ALIFPGGMJDWMJH-UHFFFAOYSA-N,N(N=Nc1ccccc1)c2ccccc2,-2.596
B-787,"benzenamine, 2-ethoxy-5-nitro-",AMMPGYPPRLWMLW-UHFFFAOYSA-N,CCOc1ccc(cc1N)[N+]([O-])=O,-3.2113
B-788,"2,4,5-trimethylaniline",BMIPMKQAAJKBKP-UHFFFAOYSA-N,Cc1cc(C)c(N)cc1C,-1.9549
B-791,glutamic acid hydrochloride,RPAJSBKBKSSMLJ-UHFFFAOYSA-N,[H+].[Cl-].NC(CCC(O)=O)C(O)=O,0.3159
B-792,butyl lactate,MRABAEUHTLLEML-UHFFFAOYSA-N,CCCCOC(=O)C(C)O,-0.5629
B-793,"benzenesulfonic acid, 3-hydrazino-",ZDGHHRPKFCVOJL-UHFFFAOYSA-N,NNc1cccc(c1)[S](O)(=O)=O,-0.8275
B-794,"benzenesulfonamide, 4-(aminomethyl)-",TYMRLRRVMHJFTF-UHFFFAOYSA-N,NCc1ccc(cc1)[S](N)(=O)=O,0.321
B-795,salicin,NGFMICBWJRZIBI-UJPOAAIJSA-N,OC[C@H]1O[C@@H](Oc2ccccc2CO)[C@H](O)[C@@H](O)[C@@H]1O,-0.8547
B-798,nitrilotriacetic acid,MGFYIUFZLHCRTH-UHFFFAOYSA-N,OC(=O)CN(CC(O)=O)CC(O)=O,-0.5101
B-799,"3,4-dihydroxybenzaldehyde",IBGBGRVKPALMCQ-UHFFFAOYSA-N,Oc1ccc(C=O)cc1O,-1.3402
B-800,"2-thiophenepropanoic acid, .alpha.-amino-",WTOFYLAWDLQMBZ-UHFFFAOYSA-N,NC(Cc1sccc1)C(O)=O,-0.8356
B-801,"ethanol, 2,2'-(ethylimino)bis-",AKNUHUCEWALCOI-UHFFFAOYSA-O,CC[NH+](CCO)CCO,0.8755
B-802,furaltadone,YVQVOQKFMFRVGR-VGOFMYFVSA-N,[O-][N+](=O)c1oc(cc1)/C=N/N2CC(CN3CCOCC3)OC2=O,-2.6359
B-803,nithiazide,FQSUTLQHSDLLAN-UHFFFAOYSA-N,CCNC(=O)Nc1sc(cn1)[N+]([O-])=O,-2.8578
B-804,"1,2-ethanediamine, n,n'-bis(phenylmethyl)-",JUHORIMYRDESRB-UHFFFAOYSA-N,C(CNCc1ccccc1)NCc2ccccc2,-1.7865
B-806,fenaminosulf,IWDQPCIQCXRBQP-UHFFFAOYSA-M,[Na+].CN(C)c1ccc(cc1)N=N[S]([O-])(=O)=O,-1.0991
B-807,"benzene, 1-methoxy-4-(2-propenyl)-",ZFMSMUAANRJZFM-UHFFFAOYSA-N,COc1ccc(CC=C)cc1,-2.9209
B-808,cyclopentylproprionic acid,ZRPLANDPDWYOMZ-UHFFFAOYSA-N,OC(=O)CCC1CCCC1,-1.7691
B-810,"butanedioic acid, dibutyl ester",YUXIBTJKHLUKBD-UHFFFAOYSA-N,CCCCOC(=O)CCC(=O)OCCCC,-3.0006
B-811,diethyl maleate,IEPRKVQEAMIZSS-WAYWQWQTSA-N,CCOC(=O)\C=C/C(=O)OCC,-1.0899
B-812,diethylhexanedioate,VIZORQUEIQEFRT-UHFFFAOYSA-N,CCOC(=O)CCCCC(=O)OCC,-1.6795
B-815,decamethyltetrasiloxane,YFCGDEUVHLPRCZ-UHFFFAOYSA-N,C[Si](C)(C)O[Si](C)(C)O[Si](C)(C)O[Si](C)(C)C,-7.6637
B-816,dicrotophos,VEENJGZXVHKXNB-VOTSOKGWSA-N,CO[P](=O)(OC)OC(/C)=C/C(=O)N(C)C,0.6249
B-817,3-iodopropionic acid,KMRNTNDWADEIIX-UHFFFAOYSA-N,OC(=O)CCI,-0.43
B-819,malonic acid,OFOBLEOULBTSOW-UHFFFAOYSA-N,OC(=O)CC(O)=O,0.8652
B-820,"4-thiazolidinone, 2-thioxo-",KIWUVOGUEXMXSV-UHFFFAOYSA-N,O=C1CSC(=S)N1,-1.7723
B-821,2-thiouracil,ZEMGGZBWXRYJHK-UHFFFAOYSA-N,O=C1NC(=S)NC=C1,-2.2573
B-822,2-hydroxypyridine,UBQKCCHYAOITMY-UHFFFAOYSA-N,O=C1NC=CC=C1,1.0218
B-823,"acetamide, n-(2-hydroxyethyl)-",PVCJKHHOXFKFRP-UHFFFAOYSA-N,CC(=O)NCCO,0.9867
B-825,"1,2-hydrazinecarbothioamide",KCOYHFNCTWXETP-UHFFFAOYSA-N,NC(=S)NNC(N)=S,-1.7965
B-827,nabam,UQJQVUOTMVCFHX-UHFFFAOYSA-L,[Na+].[Na+].[S-]C(=S)NCCNC([S-])=S,-0.1078
B-828,piperazine hydrochloride,CVVIJWRCGSYCMB-UHFFFAOYSA-N,[H+].[H+].[Cl-].[Cl-].C1CNCCN1,0.4112
B-829,n-hexyl acetate,AOGQPLXWSUTHQB-UHFFFAOYSA-N,CCCCCCOC(C)=O,-2.451
B-831,"1-hexanamine, n-hexyl-",PXSXRABJBXYMFT-UHFFFAOYSA-N,CCCCCCNCCCCCC,-3.1574
B-832,triethylene glycol butyl ether,COBPKKZHLDDMTB-UHFFFAOYSA-N,CCCCOCCOCCOCCO,0.6855
B-833,kepone,LHHGDZSESBACKH-UHFFFAOYSA-N,ClC1(Cl)C2(Cl)C3(Cl)C4(Cl)C(=O)C5(Cl)C3(Cl)C1(Cl)C5(Cl)C24Cl,-5.2594
B-834,butabarbital sodium,QORQZMBCPRBCAB-UHFFFAOYSA-M,[Na+].CCC(C)C1(CC)C(=O)NC(=O)[N-]C1=O,0.1528
B-835,"1,3-dioxolane-4,4-diacetic acid, 5-oxo-",PXPMCAKTYKAROX-UHFFFAOYSA-N,OC(=O)CC1(CC(O)=O)OCOC1=O,-0.611
B-837,dsma,SDIXRDNYIMOKSG-UHFFFAOYSA-L,[Na+].[Na+].C[As]([O-])([O-])=O,0.3711
B-838,fluoroacetic acid,QEWYKACRFQMRMB-UHFFFAOYSA-N,OC(=O)CF,1.1077
B-841,dl-allothreonine,AYFVYJQAPQTCCC-UHFFFAOYSA-N,CC(O)C(N)C(O)=O,0.067
B-842,d-tartaric acid,FEWJPZIEWOKRBE-LWMBPPNESA-N,O[C@@H]([C@H](O)C(O)=O)C(O)=O,0.8236
B-845,"benzamide, 2-methyl-3,5-dinitro-",ZEFNOZRLAWVAQF-UHFFFAOYSA-N,Cc1c(cc(cc1[N+]([O-])=O)[N+]([O-])=O)C(N)=O,-2.3525
B-846,flumethazide,RGUQWGXAYZNLMI-UHFFFAOYSA-N,N[S](=O)(=O)c1cc2c(NC=N[S]2(=O)=O)cc1C(F)(F)F,-0.8186
B-847,thiabendazole,WJCNZQLZVWNLKY-UHFFFAOYSA-N,[nH]1c2ccccc2nc1c3cscn3,-3.6048
B-848,"2,4-des",HJEINPVZRDJRBY-UHFFFAOYSA-N,O[S](=O)(=O)OCCOc1ccc(Cl)cc1Cl,-0.0601
B-849,"3,4,5-trihydroxybenzoic acid",LNTHITQWFMADLM-UHFFFAOYSA-N,OC(=O)c1cc(O)c(O)c(O)c1,-1.1552
B-850,dulcin,GGLIEWRLXDLBBF-UHFFFAOYSA-N,CCOc1ccc(NC(N)=O)cc1,-2.173
B-851,sodium succinate,ZDQYSKICYIVCPN-UHFFFAOYSA-L,[Na+].[Na+].[O-]C(=O)CCC([O-])=O,0.0914
B-852,potassium cyanide,NNFCIKHAZHQZJG-UHFFFAOYSA-N,[K+].[C-]#N,1.0436
B-854,octamethylpyrophosphoramide,SZKKRCSOSQAJDE-UHFFFAOYSA-N,CN(C)[P](=O)(O[P](=O)(N(C)C)N(C)C)N(C)C,0.5433
B-855,vicine,KGNGTSCIQCLKEH-SYCVNHKBSA-N,NC1=NC(=O)C(=C(N)N1)O[C@@H]2O[C@H](CO)[C@@H](O)[C@H](O)[C@H]2O,-1.4832
B-856,"1,3-bis(2-chloroet)-1-nitrosourea",DLGOEMSEDOSKAD-UHFFFAOYSA-N,ClCCNC(=O)N(CCCl)N=O,-1.7285