ID,Name,InChIKey,SMILES,Solubility
A-222,dioxovanadium,GRUMUEUJTSXQOI-UHFFFAOYSA-N,O=[V]=O,-4.4002500912
A-224,1-dodecylpyridin-1-ium chloride,GKQHIYSTBXDYNQ-UHFFFAOYSA-M,[Cl-].CCCCCCCCCCCC[n+]1ccccc1,-0.4539105371
A-225,"2-(2,6-dimethylphenoxy)acetic acid",MLBCURLNKYKBEQ-UHFFFAOYSA-N,Cc1cccc(C)c1OCC(O)=O,-2.2566445306
A-227,"({bis[(2-ethylhexanoyl)oxy]-2,4-dioxa-3-bora-1,5-dicobaltapentan-3-yl}oxy)cobaltio 2-ethylhexanoate",HRNSQLGPRFFUNA-UHFFFAOYSA-K,CCCCC(CC)C(=O)O[Co]OB(O[Co])O[Co](OC(=O)C(CC)CCCC)OC(=O)C(CC)CCCC,-1.8254561435
A-228,"disodium 4-[(E)-2-[2,6-dihydroxy-3-(hydroxymethyl)-5-[(E)-2-(4-sulfonatonaphthalen-1-yl)diazen-1-yl]phenyl]diazen-1-yl]naphthalene-1-sulfonate",TUQJHVRCALPCHU-CRVUNLCOSA-L,[Na+].[Na+].OCC1=CC(=N/Nc2ccc(c3ccccc23)[S]([O-])(=O)=O)\C(=O)/C(=N/Nc4ccc(c5ccccc45)[S]([O-])(=O)=O)C1=O,-0.8171647444
A-229,1-(4-hydroxyphenyl)ethan-1-one,TXFPEBPIARQUIG-UHFFFAOYSA-N,CC(=O)c1ccc(O)cc1,-1.1383824511
A-230,calcium magnesium(2+) ion dioxidandiide,YLUIKWVQCKSMCF-UHFFFAOYSA-N,[O--].[O--].[Mg++].[Ca++],-1.9883562334
A-232,disodium 3-[(E)-2-{4-[(E)-2-(7-amino-1-hydroxy-3-sulfonatonaphthalen-2-yl)diazen-1-yl]naphthalen-1-yl}diazen-1-yl]-2-hydroxybenzoate,QENJECLVTWIZIG-UHFFFAOYSA-L,[Na+].[Na+].Nc1ccc2cc(c(N=Nc3ccc(N=Nc4cccc(C([O-])=O)c4O)c5ccccc35)c(O)c2c1)[S]([O-])(=O)=O,-2.7868204517
A-234,"6,10-dimethylundeca-3,5,9-trien-2-one",JXJIQCXXJGRKRJ-KOOBJXAQSA-N,CC(C)=CCC\C(C)=C\C=C\C(C)=O,-3.2972120668
A-236,"1,3-divinylimidazolidin-2-one",HMYBDZFSXBJDGL-UHFFFAOYSA-N,C=CN1CCN(C=C)C1=O,-1.1558864442
A-237,2-amino-4-nitrophenol,VLZVIIYRNMWPSN-UHFFFAOYSA-N,Nc1cc(ccc1O)[N+]([O-])=O,-2.2056018566
A-238,magnesium,JLVVSXFLKOJNIY-UHFFFAOYSA-N,[Mg++],-2.4020693383
A-241,oxocalcium,ODINCKMPIJJUCX-UHFFFAOYSA-N,O=[Ca],-1.7683268795
A-242,"5-nitro-1,3-dihydro-2H-benzimidazol-2-one",DLJZIPVEVJOKHB-UHFFFAOYSA-N,[O-][N+](=O)c1ccc2NC(=O)Nc2c1,-3.2740875474
A-243,5-methyl-5-phenylhexan-3-one,GPLOHVHPULDLOP-YRNVUSSQSA-N,Cc1ccc(cc1)[S](=O)(=O)/C(=C/N2CC(=O)NC2=S)C#N,-3.5292992951
A-247,2-ethyl-3-hydroxy-4H-pyran-4-one,YIKYNHJUKRTCJL-UHFFFAOYSA-N,CCC1=C(O)C(=O)C=CO1,-1.1759580204
A-249,methyl 2-phenylacetate,CRZQGDNQQAALAY-UHFFFAOYSA-N,COC(=O)Cc1ccccc1,-2.2114017234
A-251,lead; sulfuric acid; hydrate,AWTSMFNITNKUQL-UHFFFAOYSA-N,O.[Pb].O[S](O)(=O)=O,-4.2262964159
A-252,1-chloro-2-methyl-3-nitrobenzene,XCSNRORTQRKCHB-UHFFFAOYSA-N,Cc1c(Cl)cccc1[N+]([O-])=O,-3.2706864295
A-254,calcium dihydroxide,AXCZMVOFGPJBDE-UHFFFAOYSA-L,[OH-].[OH-].[Ca++],-1.9107299257
A-255,silicon(+4) cation tetraphosphate,XLUBVTJUEUUZMR-UHFFFAOYSA-B,[Si+4].[Si+4].[Si+4].[O-][P]([O-])([O-])=O.[O-][P]([O-])([O-])=O.[O-][P]([O-])([O-])=O.[O-][P]([O-])([O-])=O,-3.0559869634
A-256,1-chlorohexane,MLRVZFYXUZQSRU-UHFFFAOYSA-N,CCCCCCCl,-3.1223887332
A-257,"2,2,2-trifluoroethyl methacrylate",QTKPMCIBUROOGY-UHFFFAOYSA-N,CC(=C)C(=O)OCC(F)(F)F,-2.2684756839
A-259,bismuth hydroxide nitrate oxide,PPNKDDZCLDMRHS-UHFFFAOYSA-N,[O-][N+](=O)O[Bi](O[N+]([O-])=O)O[N+]([O-])=O,-2.642008137
A-262,octan-2-one,ZPVFWPFBNIEHGJ-UHFFFAOYSA-N,CCCCCCC(C)=O,-2.1536963273
A-263,2-[(E)-oct-2-enyl]butanedioic acid,QWBQTFQCJMOSPK-VOTSOKGWSA-N,CCCCC/C=C/CC(CC(O)=O)C(O)=O,-2.4042405739
A-264,"2-(prop-1-en-1-yl)-2,3,3-tripropylbutanedioic acid",CDQYPMBESFIYFO-WEVVVXLNSA-N,CCCC(CCC)(C(O)=O)C(CCC)(\C=C\C)C(O)=O,-3.4953596006
A-266,17-hydroxy-1-methylandrost-4-en-3-one,KROXBRXHRBCDNO-IFMMWYRXSA-N,C[C@H]1CC(=O)C=C2CC[C@H]3[C@@H]4CC[C@H](O)[C@@]4(C)CC[C@@H]3[C@@]12C,-3.5264225666
A-267,"sodium 2-{2,5-dichloro-4-[(E)-2-(2-methyl-1H-indol-3-yl)diazen-1-yl]benzenesulfonamido}ethane-1-sulfonate",IQWBFKOZXPTGNT-YFZNFVDXSA-M,[Na+].CC\1=Nc2ccccc2C1=N/Nc3cc(Cl)c(cc3Cl)[S](=O)(=O)NCC[S]([O-])(=O)=O,-3.7561795168
A-270,2-hydroxy-1-(4-{[4-(2-hydroxy-2-methylpropanoyl)phenyl]methyl}phenyl)-2-methylpropan-1-one,PCKZAVNWRLEHIP-UHFFFAOYSA-N,CC(C)(O)C(=O)c1ccc(Cc2ccc(cc2)C(=O)C(C)(C)O)cc1,-4.536378597
A-271,barium(+2) cation; iron(+3) cation; oxygen(-2) anion,HPYIMVBXZPJVBV-UHFFFAOYSA-N,[O--].[O--].[O--].[O--].[O--].[O--].[O--].[O--].[O--].[O--].[O--].[O--].[O--].[O--].[O--].[O--].[O--].[O--].[O--].[Fe+3].[Fe+3].[Fe+3].[Fe+3].[Fe+3].[Fe+3].[Fe+3].[Fe+3].[Fe+3].[Fe+3].[Fe+3].[Fe+3].[Ba++],-8.7448595438
A-273,"(octahydro-4,7-methano-1H-indenediyl)bis(methylene) diacrylate",VEBCLRKUSAGCDF-UHFFFAOYSA-N,C=CC(=O)OCC1CCC2C3CC(CC3COC(=O)C=C)C12,-4.4930858187
A-276,1-(2-benzenesulfonamidophenyl)-3-phenylurea,BGLZECVIKIGPIF-UHFFFAOYSA-N,O=C(Nc1ccccc1)Nc2ccccc2N[S](=O)(=O)c3ccccc3,-4.5784028785
A-277,dipotassium; oxygen(-2) anion; titanium(+4) cation,KEWYKJOOCFOYTD-UHFFFAOYSA-N,[O--].[O--].[O--].[K+].[K+].[Ti+4],-5.5836431263
A-278,2-ethylhexyl prop-2-enoate,GOXQRTZXKQZDDN-UHFFFAOYSA-N,CCCCC(CC)COC(=O)C=C,-4.2832046138
A-280,"zinc bis[O,O-bis(2-ethylhexyl)] bis(dithiophosphate)",OECQDNKCDGGPFY-UHFFFAOYSA-L,[Zn++].CCCCC(CC)CO[P]([S-])(=S)OCC(CC)CCCC.CCCCC(CC)CO[P]([S-])(=S)OCC(CC)CCCC,-4.9288559714
A-284,Tricyclodecanyl acetate,YKFHIJHJBUDXFP-UHFFFAOYSA-N,CC(=O)OC1CC2CC1C3CCCC23,-3.3380498278
A-285,ethanethiol,DNJIEGIFACGWOD-UHFFFAOYSA-N,CCS,-0.8459165596
A-293,3-({[({[(2-ethylhexyl)oxy]carbonyl}peroxy)carbonyl]oxy}methyl)heptane,ZACVGCNKGYYQHA-UHFFFAOYSA-N,CCCCC(CC)COC(=O)OOC(=O)OCC(CC)CCCC,-2.5951754429
A-295,"3,7-dimethyloct-6-enal",NEHNMFOYXAPHSD-SNVBAGLBSA-N,C[C@H](CCC=C(C)C)CC=O,-3.243750947
A-296,"(1S,2S)-1-methyl-4-(propan-2-yl)-7-oxabicyclo[2.2.1]heptan-2-ol",IFQZADDJTDGGCP-AEJSXWLSSA-N,CC(C)[C@@]12CC[C@@](C)(O1)[C@@H](O)C2,-0.288092629
A-297,3-[4-(propan-2-yl)phenyl]propanal,RLEFOSDUWZYGOS-UHFFFAOYSA-N,CC(C)c1ccc(CCC=O)cc1,-3.3026567859
A-298,1-bromobutane,MPPPKRYCTPRNTB-UHFFFAOYSA-N,CCCCBr,-2.1977641867
A-300,sodium hydrogen (2S)-2-dodecanamidopentanedioate,IWIUXJGIDSGWDN-UQKRIMTDSA-M,[Na+].CCCCCCCCCCCC(=O)N[C@@H](CCC(O)=O)C([O-])=O,-3.6091104804
A-301,[2-(1-propoxyethoxy)ethyl]benzene,FMYCPRQGKSONCP-UHFFFAOYSA-N,CCCOC(C)OCCc1ccccc1,-3.3841929036
A-304,"6,6-dimethoxy-2,5,5-trimethylhex-2-ene",RDHNTAXPFZIMDN-UHFFFAOYSA-N,COC(OC)C(C)(C)CC=C(C)C,-3.3397616042
A-305,4-(1-methoxy-1-methylethyl)-1-methylcyclohexene,YWJHQHJWHJRTAB-UHFFFAOYSA-N,COC(C)(C)C1CCC(=CC1)C,-3.2966135776
A-307,"cobalt(3+) ion 9-(2-carboxyphenyl)-6-(diethylamino)-N,N-diethyl-3H-xanthen-3-iminium bis(3-methyl-4-[(E)-2-(2-oxido-5-{[3-(propan-2-yloxy)propyl]sulfamoyl}phenyl)diazen-1-yl]-1-phenyl-1H-pyrazol-5-olate)",WUVJFYRTCZOXAH-UHFFFAOYSA-K,[Co+3].CCN(CC)c1ccc2c(c1)[o+]c3cc(ccc3c2c4ccccc4C(O)=O)N(CC)CC.CC(C)OCCCN[S](=O)(=O)c5ccc([O-])c(c5)N=Nc6c(C)nn(c6[O-])c7ccccc7.CC(C)OCCCN[S](=O)(=O)c8ccc([O-])c(c8)N=Nc9c(C)nn(c9[O-])c%10ccccc%10,-3.2357622441
A-310,"1,4-dichloro-2-nitrobenzene",RZKKOBGFCAHLCZ-UHFFFAOYSA-N,[O-][N+](=O)c1cc(Cl)ccc1Cl,-3.3642253983
A-311,"3,7-dimethylnon-6-en-1-yn-3-ol",OJXKWJPEGDDDHH-CSKARUKUSA-N,CC/C(C)=C/CCC(C)(O)C#C,-2.3027678878
A-314,3-(trimethoxysilyl)propyl 2-methylprop-2-enoate,XDLMVUHYZWKMMD-UHFFFAOYSA-N,CO[Si](CCCOC(=O)C(C)=C)(OC)OC,-3.4779807224
A-316,"4,4'-Isopropylidenediphenol, oligomeric reaction products with 1-chloro-2,3-epoxypropane, esters with acrylic acid",RYSXGWPNVZQNNB-UHFFFAOYSA-N,CC(C)(c1ccc(O)cc1)c2ccc(O)cc2.OC(=O)C=C.ClCC3CO3,-3.6804449633
A-319,"1-phenyl-2,5-dihydro-1H-pyrrole-2,5-dione",HIDBROSJWZYGSZ-UHFFFAOYSA-N,O=C1C=CC(=O)N1c2ccccc2,-2.3273175561
A-320,"5-methyl-2-(4-methylphenyl)-2,3-dihydro-1H-pyrazol-3-one",IOQOLGUXWSBWHR-UHFFFAOYSA-N,Cc1ccc(cc1)N2N=C(C)CC2=O,-2.365667988
A-321,(4-formylphenyl)boronic acid,VXWBQOJISHAKKM-UHFFFAOYSA-N,OB(O)c1ccc(C=O)cc1,-2.2673846672
A-322,4-methyl-4-phenylpentan-2-one,PFDVPCSDZXZDMF-UHFFFAOYSA-N,CC(=O)CC(C)(C)c1ccccc1,-2.337666283
A-323,pentyl propanoate,TWSRVQVEYJNFKQ-UHFFFAOYSA-N,CCCCCOC(=O)CC,-2.250522404
A-324,"1-chloro-1,2,2-trifluoroethene",UUAGAQFQZIEFAH-UHFFFAOYSA-N,FC(F)=C(F)Cl,-2.1609542979
A-326,"Dodecan-1-ol, ethoxylated",SFNALCNOMXIBKG-UHFFFAOYSA-N,CCCCCCCCCCCCOCCO,-1.4593774078
A-328,11-aminoundecanoic acid,GUOSQNAUYHMCRU-UHFFFAOYSA-N,NCCCCCCCCCCC(O)=O,-2.4007753619
A-329,"N',N'''''-hexane-1,6-diylbis[N-(4-chlorophenyl)(imidodicarbonimidic diamide)]",GHXZTYHSJHQHIJ-UHFFFAOYSA-N,NC(Nc1ccc(Cl)cc1)=NC(N)=NCCCCCCN=C(N)N=C(N)Nc2ccc(Cl)cc2,-2.8005950876
A-331,(5Z)-5-ethylidenebicyclo[2.2.1]hept-2-ene,OJOWICOBYCXEKR-KRXBUXKQSA-N,C\C=C1/CC2CC1C=C2,-3.1767964148
A-332,"1,3-diethyl-1,3-diphenylurea",PZIMIYVOZBTARW-UHFFFAOYSA-N,CCN(C(=O)N(CC)c1ccccc1)c2ccccc2,-3.5256277962
A-334,butyl 2-aminobenzoate,HUIYGGQINIVDNW-UHFFFAOYSA-N,CCCCOC(=O)c1ccccc1N,-3.3830205262
A-338,benzyl 2-hydroxybenzoate,ZCTQGTTXIYCGGC-UHFFFAOYSA-N,Oc1ccccc1C(=O)OCc2ccccc2,-4.4139224059
A-339,tetrabutylstannane,AFCAKJKUYFLYFK-UHFFFAOYSA-N,CCCC[Sn](CCCC)(CCCC)CCCC,-4.596065772
A-342,magnesium(2+) ion dimethanolate,CRGZYKWWYNQGEC-UHFFFAOYSA-N,[Mg++].C[O-].C[O-],-3.9943699512
A-343,cadmium,WLZRMCYVCSSEQC-UHFFFAOYSA-N,[Cd++],-4.1112934221
A-347,"6,8-bis(phenylamino)naphthalene-1-sulfonic acid",USFSONWQSVCJBO-UHFFFAOYSA-N,O[S](=O)(=O)c1cccc2cc(Nc3ccccc3)cc(Nc4ccccc4)c12,-4.6725029066
A-348,di-tert-butyl sec-butylidene diperoxide,HQOVXPHOJANJBR-UHFFFAOYSA-N,CCC(C)(OOC(C)(C)C)OOC(C)(C)C,-4.4507609201
A-349,"1,1'-sulfanediyldibenzene",LTYMSROWYAPPGB-UHFFFAOYSA-N,S(c1ccccc1)c2ccccc2,-4.3606078686
A-350,"4-[(1-amino-4-hydroxy-9,10-dioxo-9,10-dihydroanthracen-2-yl)oxy]-N-(3-ethoxypropyl)benzene-1-sulfonamide",ALXCWDABTQQKAH-UHFFFAOYSA-N,CCOCCCN[S](=O)(=O)c1ccc(Oc2cc(O)c3C(=O)c4ccccc4C(=O)c3c2N)cc1,-4.7874700957
A-352,"tetrachloro-1,3-dihydro-2-benzofuran-1,3-dione",AUHHYELHRWCWEZ-UHFFFAOYSA-N,Clc1c(Cl)c(Cl)c2C(=O)OC(=O)c2c1Cl,-4.5531196112
A-355,"calcium 4,5-dichloro-2-[(E)-2-[3-methyl-5-oxo-1-(3-sulfonatophenyl)-4,5-dihydro-1H-pyrazol-4-yl]diazen-1-yl]benzene-1-sulfonate",KJAXOZTWNHRZQG-UHFFFAOYSA-L,[Ca++].CC1=NN(c2cccc(c2)[S]([O-])(=O)=O)C(=O)C1N=Nc3cc(Cl)c(Cl)cc3[S]([O-])(=O)=O,-3.8390840609
A-356,ethanol,LFQSCWFLJHTTHZ-UHFFFAOYSA-N,CCO,1.2336682179
A-359,"1,4-dimethoxybenzene",OHBQPCCCRFSCAX-UHFFFAOYSA-N,COc1ccc(OC)cc1,-2.2455315279
A-360,[2-(cyclohexyloxy)ethyl]benzene,HLMIVULQFMULRM-UHFFFAOYSA-N,C1CCC(CC1)OCCc2ccccc2,-2.4180900548
A-362,"cobalt(2+);2-ethyl-2,5-dimethylhexanoate",KOKXAPDKXDSOEG-UHFFFAOYSA-L,[Co++].CCC(C)(CCC(C)C)C([O-])=O.CCC(C)(CCC(C)C)C([O-])=O,-2.7160174073
A-363,"(2E)-1-(2,6,6-trimethylcyclohex-3-en-1-yl)but-2-en-1-one",XEJGJTYRUWUFFD-FNORWQNLSA-N,C/C=C/C(=O)C1C(C)C=CCC1(C)C,-3.3963665007
A-364,"1,4-bis(oxiran-2-ylmethyl) benzene-1,4-dicarboxylate",NEPKLUNSRVEBIX-UHFFFAOYSA-N,O=C(OCC1CO1)c2ccc(cc2)C(=O)OCC3CO3,-3.5579600556
A-365,dec-4-enal,CWRKZMLUDFBPAO-VOTSOKGWSA-N,CCCCC/C=C/CCC=O,-3.301742894
A-367,"disodium 2,2'-ethene-1,2-diylbis[5-({4-anilino-6-[(2-hydroxyethyl)(methyl)amino]-1,3,5-triazin-2-yl}amino)benzenesulfonate]",VVYVUOFMPAXVCH-QDBORUFSSA-L,[Na+].[Na+].CN(CCO)c1nc(Nc2ccccc2)nc(Nc3ccc(/C=C/c4ccc(Nc5nc(Nc6ccccc6)nc(n5)N(C)CCO)cc4[S]([O-])(=O)=O)c(c3)[S]([O-])(=O)=O)n1,-3.0693211517
A-368,"2,3,5-trimethylphenol",OGRAOKJKVGDSFR-UHFFFAOYSA-N,Cc1cc(C)c(C)c(O)c1,-2.2522030039
A-369,"1,1,1-trifluoroethane",UJPMYEOUBPIPHQ-UHFFFAOYSA-N,CC(F)(F)F,-2.043101387
A-370,2-hydroxy-1-[4-(2-hydroxyethoxy)phenyl]-2-methylpropan-1-one,GJKGAPPUXSSCFI-UHFFFAOYSA-N,CC(C)(O)C(=O)c1ccc(OCCO)cc1,-1.4699304792
A-371,isothiocyanatomethane,LGDSHSYDSCRFAB-UHFFFAOYSA-N,CN=C=S,-0.9832225904
A-372,"1,3-dimethyl-1,3-diphenylurea",ADCBKYIHQQCFHE-UHFFFAOYSA-N,CN(C(=O)N(C)c1ccccc1)c2ccccc2,-3.4975575811
A-373,"1,4-dioxacyclohexadecane-5,16-dione",GJJSUPSPZIZYPM-UHFFFAOYSA-N,O=C1CCCCCCCCCCC(=O)OCCO1,-3.533758505
A-374,"Alcohols, C9-11-iso-, C10-rich",PLLBRTOLHQQAQQ-UHFFFAOYSA-N,CC(C)CCCCCCCO,-3.3243784972
A-376,cobalt(2+) dipropanoate,TZWGXFOSKIHUPW-UHFFFAOYSA-L,[Co++].CCC([O-])=O.CCC([O-])=O,-0.4376623173
A-377,ethyl 3-phenyloxirane-2-carboxylate,GOMAKLPNAAZVCJ-UHFFFAOYSA-N,CCOC(=O)C1OC1c2ccccc2,-2.4096512377
A-378,"2,6-dimethylheptan-2-ol",HGDVHRITTGWMJK-UHFFFAOYSA-N,CC(C)CCCC(C)(C)O,-2.2869836341
A-379,benzyl propanoate,VHOMAPWVLKRQAZ-UHFFFAOYSA-N,CCC(=O)OCc1ccccc1,-2.344979827
A-381,1-ethynylcyclohexyl acetate,YASSLXHVJQGNOK-UHFFFAOYSA-N,CC(=O)OC1(CCCCC1)C#C,-2.352215179
A-382,triethylamine,ZMANZCXQSJIPKH-UHFFFAOYSA-N,CCN(CC)CC,-0.1376829835
A-383,"N-(3-aminopropyl)-N'-octadec-9-en-1-ylpropane-1,3-diamine",ZXUXEWRICDHNKF-KTKRTIGZSA-N,CCCCCCCC\C=C/CCCCCCCCNCCCNCCCN,-3.7183913352
A-384,(methylsulfanyl)methane,QMMFVYPAHWMCMS-UHFFFAOYSA-N,CSC,-0.9312189022
A-385,sodium (methylcarbamothioyl)sulfanide,AFCCDDWKHLHPDF-UHFFFAOYSA-M,[Na+].CNC([S-])=S,0.747325108
A-387,"2,4,5-trichloroaniline",GUMCAKKKNKYFEB-UHFFFAOYSA-N,Nc1cc(Cl)c(Cl)cc1Cl,-3.4359504856
A-388,2-chloro-6-(trichloromethyl)pyridine,DCUJJWWUNKIJPH-UHFFFAOYSA-N,Clc1cccc(n1)C(Cl)(Cl)Cl,-3.506108364
A-389,3-hydroxynaphthalene-2-carboxylic acid,ALKYHXVLJMQRLQ-UHFFFAOYSA-N,OC(=O)c1cc2ccccc2cc1O,-3.4172455835
A-390,"(3E)-penta-1,3-diene; (3Z)-penta-1,3-diene; cyclopentene",UEGXXVLLCWTKGN-GIHNHNQOSA-N,C\C=C/C=C.C/C=C/C=C.C1CC=CC1,-2.4542650743
A-391,3-(3-propan-2-ylphenyl)butanal,OHRBQTOZYGEWCJ-UHFFFAOYSA-N,CC(C)c1cccc(c1)C(C)CC=O,-3.6773468456
A-396,"hexasodium 4-amino-3-[2-(5-{[4-chloro-6-({3-[2-(sulfonatooxy)ethanesulfonyl]phenyl}amino)-1,3,5-triazin-2-yl]amino}-2-sulfonatophenyl)diazen-1-yl]-6-[2-(1,5-disulfonatonaphthalen-2-yl)diazen-1-yl]-5-hydroxynaphthalene-2,7-disulfonate",CRBABZUVIKGIMW-UHFFFAOYSA-H,[Na+].[Na+].[Na+].[Na+].[Na+].[Na+].Nc1c(N=Nc2cc(Nc3nc(Cl)nc(Nc4cccc(c4)[S](=O)(=O)CCO[S]([O-])(=O)=O)n3)ccc2[S]([O-])(=O)=O)c(cc5cc(c(N=Nc6ccc7c(cccc7[S]([O-])(=O)=O)c6[S]([O-])(=O)=O)c(O)c15)[S]([O-])(=O)=O)[S]([O-])(=O)=O,-1.277021164
A-397,"1,1,2,2,3,3,4-heptafluorocyclopentane",IDBYQQQHBYGLEQ-UHFFFAOYSA-N,FC1CC(F)(F)C(F)(F)C1(F)F,-2.436880918
A-398,tributyl[(tributylstannyl)oxy]stannane,APQHKWPGGHMYKJ-UHFFFAOYSA-N,CCCC[Sn](CCCC)(CCCC)O[Sn](CCCC)(CCCC)CCCC,-3.9228515135
A-400,"Hydrocarbons, C5-rich",OFBQJSOFQDEBGM-UHFFFAOYSA-N,CCCCC,-3.006984006
A-402,2-methoxy-4-[(1E)-prop-1-en-1-yl]phenol,BJIOGJUNALELMI-ONEGZZNKSA-N,COc1cc(\C=C\C)ccc1O,-2.3647374971
A-403,"3,4-dimethylbenzaldehyde",POQJHLBMLVTHAU-UHFFFAOYSA-N,Cc1ccc(C=O)cc1C,-2.277035079
A-405,"1-phenylethan-1-aminium hydrate hydrogen [(2R,3S)-3-methyloxiran-2-yl]phosphonate",XDXCFDPDYZSCAG-AFHMRPNKSA-N,O.CC([NH3+])c1ccccc1.C[C@@H]2O[C@@H]2[P](O)([O-])=O,-0.5941393378
A-407,"disodium 2-(2,4,5,7-tetraiodo-6-oxido-3-oxoxanthen-9-yl)benzoate",IINNWAYUJNWZRM-UHFFFAOYSA-L,[Na+].[Na+].[O-]C(=O)c1ccccc1C2=C3C=C(I)C(=O)C(=C3Oc4c(I)c([O-])c(I)cc24)I,-1.0993150407
A-409,butyl acetate,DKPFZGUDAPQIHT-UHFFFAOYSA-N,CCCCOC(C)=O,-1.2199585633
A-410,"4,4'-diaminobiphenyl-2,2'-disulfonic acid",MBJAPGAZEWPEFB-UHFFFAOYSA-N,Nc1ccc(c2ccc(N)cc2[S](O)(=O)=O)c(c1)[S](O)(=O)=O,-2.6919272706
A-411,4-hydroxy-3-methoxy-5-nitrobenzaldehyde,ZEHYRTJBFMZHCY-UHFFFAOYSA-N,COc1cc(C=O)cc(c1O)[N+]([O-])=O,-2.4496899299
A-412,N-[3-(diethylamino)phenyl]acetamide,FPUKYOSOAAPHTN-UHFFFAOYSA-N,CCN(CC)c1cccc(NC(C)=O)c1,-2.4693780306
A-415,plumbanone,YEXPOXQUZXUXJW-UHFFFAOYSA-N,O=[Pb],-3.5023551324
A-416,"1,3-bis(2-methylphenyl)guanidine",OPNUROKCUBTKLF-UHFFFAOYSA-N,Cc1ccccc1NC(N)=Nc2ccccc2C,-3.5338845835
A-420,"2-ethylpentyl 3-(3,5-ditert-butyl-4-hydroxyphenyl)propanoate",PJZFNEYJOZUEGS-UHFFFAOYSA-N,CCCC(CC)COC(=O)CCc1cc(c(O)c(c1)C(C)(C)C)C(C)(C)C,-7.0987371496
A-421,Longifolene,PDSNLYSELAIEBU-UHFFFAOYSA-N,CC1(C)CCCC2(C)C3CCC(C13)C2=C,-4.4127624272
A-422,2-phenylethyl 2-hydroxybenzoate,YNMSDIQQNIRGDP-UHFFFAOYSA-N,Oc1ccccc1C(=O)OCCc2ccccc2,-4.4891053349
A-425,"propane-1,2-diyl dibenzoate",UMVMVEZHMZTUHD-UHFFFAOYSA-N,CC(COC(=O)c1ccccc1)OC(=O)c2ccccc2,-4.5673029377
A-426,tricalcium diphosphate,QORWJWZARLRLPR-UHFFFAOYSA-H,[Ca++].[Ca++].[Ca++].[O-][P]([O-])([O-])=O.[O-][P]([O-])([O-])=O,-4.6051146656
A-427,2-(2-methylbutan-2-yl)cyclohexyl acetate,YEVACTAGDANHRH-UHFFFAOYSA-N,CCC(C)(C)C1CCCCC1OC(C)=O,-4.4462039036
A-429,2-cyclohexylidene-2-phenylacetonitrile,ZHOOOLQOWQVYOE-UHFFFAOYSA-N,N#C[C](=[C]1CC[CH2]CC1)c2ccccc2,-4.4200239973
A-431,"2-{2-[(2,6-dichlorophenyl)amino]phenyl}acetic acid",DCOPUUMXTXDBNB-UHFFFAOYSA-N,OC(=O)Cc1ccccc1Nc2c(Cl)cccc2Cl,-4.6202577876
A-432,"1,1'-ethane-1,2-diylbis(4-nitrobenzene)",BSNKHEKTRWNNAC-UHFFFAOYSA-N,[O-][N+](=O)c1ccc(CCc2ccc(cc2)[N+]([O-])=O)cc1,-4.5898858002
A-433,"4-(2,4,4-trimethylpentan-2-yl)phenol",ISAVYTVYFVQUDY-UHFFFAOYSA-N,CC(C)(C)CC(C)(C)c1ccc(O)cc1,-4.4694622333
A-434,4-nonylphenol,IGFHQQFPSIBGKE-UHFFFAOYSA-N,CCCCCCCCCc1ccc(O)cc1,-4.4980268403
A-435,N-(4-carbamoylphenyl)-4-methoxy-3-nitrobenzamide,JXHSJUAPWJKPLE-UHFFFAOYSA-N,COc1ccc(cc1[N+]([O-])=O)C(=O)Nc2ccc(cc2)C(N)=O,-4.6536052692
A-436,dimethyl(octadecyl)amine,PFKRTWCFCOUBHS-UHFFFAOYSA-N,[Cl-].CCCCCCCCCCCCCCCCCC[NH+](C)C,-4.6786900339
A-441,tetrabutylazanium bromide,JRMUNVKIHCOMHV-UHFFFAOYSA-M,[Br-].CCCC[N+](CCCC)(CCCC)CCCC,1.3320248442
A-444,cadmium dihydroxide,PLLZRTNVEXYBNA-UHFFFAOYSA-L,[OH-].[OH-].[Cd++],-3.3236333941
A-445,"(2R)-6-fluoro-2-[(2R)-oxiran-2-yl]-3,4-dihydro-2H-1-benzopyran; (2R)-6-fluoro-2-[(2S)-oxiran-2-yl]-3,4-dihydro-2H-1-benzopyran; (2S)-6-fluoro-2-[(2R)-oxiran-2-yl]-3,4-dihydro-2H-1-benzopyran; (2S)-6-fluoro-2-[(2S)-oxiran-2-yl]-3,4-dihydro-2H-1-benzopyran",KCFGCDSNSLCBLY-IOLMCIFPSA-N,Fc1ccc2O[C@@H](CCc2c1)[C@@H]3CO3.Fc4ccc5O[C@@H](CCc5c4)[C@H]6CO6.Fc7ccc8O[C@H](CCc8c7)[C@@H]9CO9.Fc%10ccc%11O[C@H](CCc%11c%10)[C@H]%12CO%12,-3.0521011765
A-447,"(2E)-3,7-dimethylocta-2,6-dien-1-ol",GLZPCOQZEFWAFX-JXMROGBWSA-N,CC(C)=CCC\C(C)=C\CO,-2.3519095035
A-451,"1,2-dimethoxybenzene",ABDKAPXRBAPSQN-UHFFFAOYSA-N,COc1ccccc1OC,-1.3149750669
A-452,"2-(4,5-diamino-1H-pyrazol-1-yl)ethan-1-ol; sulfuric acid",IBCDZZHMNXXYAP-UHFFFAOYSA-N,Nc1cnn(CCO)c1N.O[S](O)(=O)=O,0.4442593444
A-453,"disodium benzene-1,3-disulfonate",XWPWZOJBTOJEGW-UHFFFAOYSA-L,[Na+].[Na+].[O-][S](=O)(=O)c1cccc(c1)[S]([O-])(=O)=O,0.3709472853
A-454,tris(2-butoxyethyl) phosphate,WTLBZVNBAKMVDP-UHFFFAOYSA-N,CCCCOCCO[P](=O)(OCCOCCCC)OCCOCCCC,-2.7785623319
A-457,1-methoxyhexane,ICBJCVRQDSQPGI-UHFFFAOYSA-N,CCCCCCOC,-2.2450853258
A-458,1-chloro-2-nitro-4-(trifluoromethyl)benzene,TZGFQIXRVUHDLE-UHFFFAOYSA-N,[O-][N+](=O)c1cc(ccc1Cl)C(F)(F)F,-2.5337046723
A-461,Betamethasone,UREBDLICKHMUKA-DVTGEIKXSA-N,C[C@H]1C[C@H]2[C@@H]3CCC4=CC(=O)C=C[C@]4(C)[C@@]3(F)[C@@H](O)C[C@]2(C)[C@@]1(O)C(=O)CO,-3.7709815003
A-463,3-(4-isopropylphenyl)-2-methylpropanal,HQQPOVNESMNPNH-UHFFFAOYSA-N,CC(C)c1ccc(cc1)C(C)CC=O,-3.4598629014
A-465,"(2,4,6-trimethylcyclohex-3-en-1-yl)methanol",DMXUBGVVJLVCPB-UHFFFAOYSA-N,CC1CC(=CC(C)C1CO)C,-2.3711973931
A-466,"3,7-dimethylnona-1,6-dien-3-ol",KRLBLPBPZSSIGH-CSKARUKUSA-N,CC/C(C)=C/CCC(C)(O)C=C,-2.409128664
A-467,"tris(oxiran-2-ylmethyl) benzene-1,2,4-tricarboxylate",YNOWBNNLZSSIHM-UHFFFAOYSA-N,O=C(OCC1CO1)c2ccc(C(=O)OCC3CO3)c(c2)C(=O)OCC4CO4,-2.7622964758
A-468,"2,4-dimethyl-4-phenyltetrahydrofuran",GPMLJOOQCIHFET-UHFFFAOYSA-N,CC1CC(C)(CO1)c2ccccc2,-2.4332379452
A-469,ethyl 2-ethylhexanoate,YXAGIRHBJJLWHW-UHFFFAOYSA-N,CCCCC(CC)C(=O)OCC,-3.423291255
A-470,quinolin-8-ol,MCJGNVYPOGVAJF-UHFFFAOYSA-N,Oc1cccc2cccnc12,-2.3496052546
A-471,"trisodium (3Z)-7-({4-chloro-6-[ethyl({3-[2-(sulfonatooxy)ethanesulfonyl]phenyl})amino]-1,3,5-triazin-2-yl}amino)-3-[2-(4-methoxy-2-sulfonatophenyl)hydrazin-1-ylidene]-4-oxo-3,4-dihydronaphthalene-2-sulfonate",FTXPZBYCIGOUHZ-WPJWCKLJSA-K,[Na+].[Na+].[Na+].CCN(c1cccc(c1)[S](=O)(=O)CCO[S]([O-])(=O)=O)c2nc(Cl)nc(Nc3ccc4C(=O)C(=N/Nc5ccc(OC)cc5[S]([O-])(=O)=O)\C(=Cc4c3)[S]([O-])(=O)=O)n2,-1.1616711076
A-472,zinc dihydroxide,UGZADUVQMDAIAO-UHFFFAOYSA-L,[OH-].[OH-].[Zn++],-2.1858288548
A-475,"1,2-diethoxybenzene",QZYDOKBVZJLQCK-UHFFFAOYSA-N,CCOc1ccccc1OCC,-2.41045076
A-476,(2E)-but-2-ene,IAQRGUVFOMOMEM-ONEGZZNKSA-N,C\C=C\C,-1.9394650737
A-477,D-erythro-pentitol,HEBKCHPVOIAQTA-UHFFFAOYSA-N,OCC(O)C(O)C(O)CO,0.6252744891
A-478,"2-methylbuta-1,3-diene",RRHGJUQNOFWUDK-UHFFFAOYSA-N,CC(=C)C=C,-2.0257332357
A-481,"(Z)-N-(3-aminopropyl)-N'-[3-(9-octadecenylamino)propyl]propane-1,3-diamine",XWNMFDCGCAFWHB-MDZDMXLPSA-N,CCCCCCCC/C=C/CCCCCCCCNCCCNCCCNCCCN,-3.8360757577
A-482,"3,7-dimethyloctan-1-ol",PRNCMAKCNVRZFX-UHFFFAOYSA-N,CC(C)CCCC(C)CCO,-3.3932597866