ID,Name,InChIKey,SMILES,Solubility
A-483,"disodium {1-ethyl-5-[(E)-2-(4-{4-[(E)-2-[1-ethyl-2-hydroxy-4-methyl-6-oxo-5-(sulfonatomethyl)-1,6-dihydropyridin-3-yl]diazen-1-yl]benzenesulfonyl}phenyl)diazen-1-yl]-6-hydroxy-4-methyl-2-oxo-1,2-dihydropyridin-3-yl}methanesulfonate",CMXLXDYHEIIMLD-UHFFFAOYSA-L,[Na+].[Na+].CCN1C(=C(N=Nc2ccc(cc2)[S](=O)(=O)c3ccc(cc3)N=NC4=C(O)N(CC)C(=O)C(=C4C)C[S]([O-])(=O)=O)C(=C(C[S]([O-])(=O)=O)C1=O)C)O,-2.1021873796
A-485,1-phenylethan-1-one,KWOLFJPFCHCOCG-UHFFFAOYSA-N,CC(=O)c1ccccc1,-1.2803868403
A-487,(3E)-4-methyldec-3-en-5-ol,WSTQLNQRVZNEDV-CSKARUKUSA-N,CCCCCC(O)C(/C)=C/CC,-3.4318638977
A-488,butyl butanoate,XUPYJHCZDLZNFP-UHFFFAOYSA-N,CCCCOC(=O)CCC,-2.3610477791
A-491,"benzene-1,2-dicarboxylic acid",XNGIFLGASWRNHJ-UHFFFAOYSA-N,OC(=O)c1ccccc1C(O)=O,-1.4245732761
A-492,"octahydro-1H-4,7-methanoindene-1-carbaldehyde",USPJNXWHVJTDJW-UHFFFAOYSA-N,O=CC1CCC2C3CCC(C3)C12,-2.4199676473
A-493,"hydrogen peroxide - 1,2-diisopropylbenzene (1:1)",SPTHWAJJMLCAQF-UHFFFAOYSA-N,CC(C)c1ccccc1C(C)C.OO,-2.4977135853
A-494,"2,6-dimethylphenol",NXXYKOUNUYWIHA-UHFFFAOYSA-N,Cc1cccc(C)c1O,-1.292396158
A-495,RHENIUM,WUAPFZMCVAUBPE-UHFFFAOYSA-N,[Re],-0.4755079565
A-496,1-phenylpropan-1-ol,DYUQAZSOFZSPHD-UHFFFAOYSA-N,CCC(O)c1ccccc1,-2.3403675905
A-497,1-[3-(trifluoromethyl)phenyl]ethan-1-one,ABXGMGUHGLQMAW-UHFFFAOYSA-N,CC(=O)c1cccc(c1)C(F)(F)F,-2.4821079167
A-498,"2,4-dichloroaniline",KQCMTOWTPBNWDB-UHFFFAOYSA-N,Nc1ccc(Cl)cc1Cl,-2.4171742578
A-499,"1,7,7-trimethylbicyclo[2.2.1]hept-2-yl acetate",KGEKLUUHTZCSIP-HOSYDEDBSA-N,CC(=O)O[C@@H]1C[C@@H]2CC[C@@]1(C)C2(C)C,-3.4963238418
A-500,4-[4-(hydrazinesulfonyl)phenoxy]benzene-1-sulfonohydrazide,NBOCQTNZUPTTEI-UHFFFAOYSA-N,NN[S](=O)(=O)c1ccc(Oc2ccc(cc2)[S](=O)(=O)NN)cc1,-3.7584891954
A-501,strontium(2+) ion hydrogen phosphate,HKSVWJWYDJQNEV-UHFFFAOYSA-K,[Sr++].[O-][P]([O-])([O-])=O,-3.4683853884
A-503,"Alkenes, C9-11, C10-rich",FDBJNQUXZRDJHC-KQQUZDAGSA-N,CC/C=C/CC/C=C/C=C,-3.34190657
A-504,"(2Z)-but-2-ene-1,4-diol",ORTVZLZNOYNASJ-UPHRSURJSA-N,OC\C=C/CO,0.8466851642
A-506,2-[2-(2-ethoxyethoxy)ethoxy]ethyl methacrylate,RBFPEAGEJJSYCX-UHFFFAOYSA-N,CCOCCOCCOCCOC(=O)C(C)=C,-0.6030114261
A-508,"(6R,7R)-3-[(acetyloxy)methyl]-7-amino-8-oxo-5-thia-1-azabicyclo[4.2.0]oct-2-ene-2-carboxylic acid",HSHGZXNAXBPPDL-HZGVNTEJSA-N,CC(=O)OCC1=C(N2[C@H](SC1)[C@H](N)C2=O)C(O)=O,-2.6489777217
A-511,decanoic acid,GHVNFZFCNZKVNT-UHFFFAOYSA-N,CCCCCCCCCC(O)=O,-3.4452161366
A-514,2-methylpropane,NNPPMTNAJDCUHE-UHFFFAOYSA-N,CC(C)C,-2.977604072
A-515,butane,IJDNQMDRQITEOD-UHFFFAOYSA-N,CCCC,-2.977604072
A-516,ethane,OTMSDBZUPAUEDD-UHFFFAOYSA-N,CC,-2.691382006
A-519,"3-{6,6-dimethylbicyclo[3.1.1]hept-2-en-2-yl}propanal",DDFGFKGJBOILQZ-UHFFFAOYSA-N,CC1(C)C2CC=C(CCC=O)C1C2,-3.4657606101
A-520,2-(4-hydroxyphenyl)acetic acid,XQXPVVBIMDBYFF-UHFFFAOYSA-N,OC(=O)Cc1ccc(O)cc1,-0.3990804112
A-521,(4-methoxyphenyl)methyl acetate,HFNGYHHRRMSKEU-UHFFFAOYSA-N,COc1ccc(COC(C)=O)cc1,-2.4740066421
A-523,ammonium fluoride hydrofluoride,KVBCYCWRDBDGBG-UHFFFAOYSA-N,[H+].[NH4+].[F-].[F-],1.0233941334
A-525,"6-phenyl-1,3,5-triazine-2,4-diamine",GZVHEAJQGPRDLQ-UHFFFAOYSA-N,Nc1nc(N)nc(n1)c2ccccc2,-2.4941685135
A-526,4-tert-butylcyclohexyl prop-2-enoate,LAIJAUHBAWLPCO-UHFFFAOYSA-N,CC(C)(C)C1CCC(CC1)OC(=O)C=C,-3.539328096
A-533,"1,4-dibromo-2-ethenylbenzene",KWVKCGGJLLNVSC-UHFFFAOYSA-N,Brc1ccc(Br)c(C=C)c1,-4.5787304077
A-535,3-hydroxy-N-(2-methylphenyl)naphthalene-2-carboxamide,FBLAHUMENIHUGG-UHFFFAOYSA-N,Cc1ccccc1NC(=O)c2cc3ccccc3cc2O,-4.6234419541
A-539,"methyl 3-amino-5,6-dichloropyrazine-2-carboxylate",USYMCUGEGUFUBI-UHFFFAOYSA-N,COC(=O)c1nc(Cl)c(Cl)nc1N,-4.5348386091
A-541,"2,4,6,7-tetraoxa-1$l^{3},3$l^{2},5$l^{3}-triplumbabicyclo[3.1.1]heptane",XMFOQHDPRMAJNU-UHFFFAOYSA-N,O1[Pb]O[Pb]2O[Pb]1O2,-4.0080532109
A-542,"N,N-dibutyloctadec-9-enamide",YMGHPIVBMBXPCR-NXVVXOECSA-N,CCCCCCCC\C=C/CCCCCCCC(=O)N(CCCC)CCCC,-4.7889854408
A-543,"(1S,2S,4S)-1,7,7-trimethylbicyclo[2.2.1]heptan-2-yl 2-methylprop-2-enoate",IAXXETNIOYFMLW-UHFFFAOYSA-N,CC(=C)C(=O)OC1CC2CCC1(C)C2(C)C,-4.5442204359
A-545,nonyl acetate,GJQIMXVRFNLMTB-UHFFFAOYSA-N,CCCCCCCCCOC(C)=O,-4.4708606495
A-547,"1,3-xylene; 1,4-diethylcyclohexane; 8,15-diethylhexacosane; anthracene; naphthalene; tetradecahydroanthracene; triacontane",DXACIACMWHJFHD-UHFFFAOYSA-N,CCCCCCCCCCCCCCCCCCCCCCCCCCCCCC.CCCCCCCCCCCC(CC)CCCCCCC(CC)CCCCCCC.CCC1CCC(CC)CC1.Cc2cccc(C)c2.C3CCC4CC5CCCCC5CC4C3.c6ccc7ccccc7c6.c8ccc9cc%10ccccc%10cc9c8,-5.4050532611
A-550,anthracene; benzene; ethylbenzene; naphthalene; tetradecane,PBMFOKZETGSLTK-UHFFFAOYSA-N,CCCCCCCCCCCCCC.CCc1ccccc1.c2ccccc2.c3ccc4ccccc4c3.c5ccc6cc7ccccc7cc6c5,-5.0416978328
A-551,naphthalene,UFWIBTONFRDIAS-UHFFFAOYSA-N,c1ccc2ccccc2c1,-4.3112256046
A-553,cyclohexyl 2-hydroxybenzoate,NUQDJSMHGCTKNL-UHFFFAOYSA-N,Oc1ccccc1C(=O)OC2CCCCC2,-4.5540762927
A-554,(4R)-1-methyl-4-(prop-1-en-2-yl)cyclohex-1-ene,XMGQYMWWDOXHJM-JTQLQIEISA-N,CC(=C)[C@@H]1CCC(=CC1)C,-4.346837785
A-555,hex-3-en-1-yl hex-3-enoate,UZJQQWFHPLYECS-SFECMWDFSA-N,CC\C=C/CCOC(=O)C\C=C/CC,-4.5097094839
A-556,"13-ethyl-3-methoxy-4,6,7,8,9,11,12,13,14,15,16,17-dodecahydro-1H-cyclopenta[a]phenanthren-17-ol (non-preferred name)",DKGAZBPXLWEBPI-SLHNCBLASA-N,CC[C@]12CC[C@H]3[C@@H](CCC4=C3CC=C(C4)OC)[C@@H]1CC[C@@H]2O,-4.7025138257
A-557,"2,3-dihydroxypropyl laurate",ARIWANIATODDMH-UHFFFAOYSA-N,CCCCCCCCCCCC(=O)OCC(O)CO,-4.6602344394
A-558,2-benzoyl-5-methoxyphenol,DXGLGDHPHMLXJC-UHFFFAOYSA-N,COc1ccc(c(O)c1)C(=O)c2ccccc2,-4.5802538276
A-560,Vertofix,YBUIAJZFOGJGLJ-UHFFFAOYSA-N,CC1CCC2C(C)(C)C3CC12CC(=C3C)C(C)=O,-4.6134788776
A-563,ethyl benzoate,MTZQAGJQAFMTAQ-UHFFFAOYSA-N,CCOC(=O)c1ccccc1,-2.3999022404
A-564,3-phenylpropanoic acid,XMIIGOLPHOKFCH-UHFFFAOYSA-N,OC(=O)CCc1ccccc1,-1.4057514128
A-566,"(2E)-3,7-dimethylocta-2,6-dienal",WTEVQBCEXWBHNA-JXMROGBWSA-N,CC(C)=CCC\C(C)=C\C=O,-2.4116682055
A-568,2-hexylcyclopentanone,JTHVYOIHZNYRCC-UHFFFAOYSA-N,CCCCCCC1CCCC1=O,-3.4515155376
A-569,"2,4,4,7-tetramethyloct-6-en-3-one",CTLDWNVYXLHMAS-UHFFFAOYSA-N,CC(C)C(=O)C(C)(C)CC=C(C)C,-3.4892158636
A-570,"Phenol, styrenated",GZGSEMRMKBBQGA-UHFFFAOYSA-N,Oc1ccc(C=C)cc1C=C,-3.3940626837
A-574,2-amino-5-chlorophenol,FZCQMIRJCGWWCL-UHFFFAOYSA-N,Nc1ccc(Cl)cc1O,-2.3906599281
A-575,4-ethoxybenzoic acid,SHSGDXCJYVZFTP-UHFFFAOYSA-N,CCOc1ccc(cc1)C(O)=O,-2.4548997462
A-576,lead(+2) cation dicarbonate dihydroxide,RYZCLUQMCYZBJQ-UHFFFAOYSA-H,[OH-].[OH-].[Pb++].[Pb++].[Pb++].[O-]C([O-])=O.[O-]C([O-])=O,-5.5472319177
A-578,"2,6-dichloro-4-(trifluoromethyl)aniline",ITNMAZSPBLRJLU-UHFFFAOYSA-N,Nc1c(Cl)cc(cc1Cl)C(F)(F)F,-3.591642752
A-579,Desipramine,HCYAFALTSJYZDH-UHFFFAOYSA-N,CNCCCN1c2ccccc2CCc3ccccc13,-3.6576170412
A-581,"1-(4-chlorophenoxy)-1-(1H-imidazol-1-yl)-3,3-dimethylbutan-2-one",OWEGWHBOCFMBLP-UHFFFAOYSA-N,CC(C)(C)C(=O)C(Oc1ccc(Cl)cc1)n2ccnc2,-3.7030926455
A-584,"decane-1,2-diol",YSRSBDQINUMTIF-UHFFFAOYSA-N,CCCCCCCCC(O)CO,-2.4785789552
A-586,2-(butan-2-yl)cyclohexan-1-one,RQXTZKGDMNIWJF-UHFFFAOYSA-N,CCC(C)C1CCCCC1=O,-2.427057806
A-587,4-formyl-2-methoxyphenyl 2-methylpropanoate,BGKAKRUFBSTALK-UHFFFAOYSA-N,COc1cc(C=O)ccc1OC(=O)C(C)C,-2.5886676064
A-588,toluene,YXFVVABEGXRONW-UHFFFAOYSA-N,Cc1ccccc1,-2.2062982993
A-594,strontium 4-[(4-chloro-5-methyl-2-sulphonatophenyl)azo]-3-hydroxy-2-naphthoate (1:1),ZZUKBDPLHIIUFR-JEBHESKQSA-L,[Sr++].Cc1cc(N\N=C/2C(=O)C(=Cc3ccccc23)C([O-])=O)c(cc1Cl)[S]([O-])(=O)=O,-3.9441003714
A-596,"17-hydroxyandrosta-1,4-dien-3-one",RSIHSRDYCUFFLA-DYKIIFRCSA-N,C[C@]12CC[C@H]3[C@@H](CCC4=CC(=O)C=C[C@]34C)[C@@H]1CC[C@@H]2O,-3.7003596507
A-597,"3-(4-ethylphenyl)-2,2-dimethylpropanenitrile",NWMCCMGWYCKNJR-UHFFFAOYSA-N,CCc1ccc(CC(C)(C)C#N)cc1,-3.3513392636
A-599,"1,6-dichlorohexane",OVISMSJCKCDOPU-UHFFFAOYSA-N,ClCCCCCCCl,-3.4346473299
A-600,Tricyclodecenyl propionate,BALAUIYKESNHDW-UHFFFAOYSA-N,CCC(=O)OC1C=CC2C3CCC(C3)C12,-3.5585927938
A-601,ethoxybenzene,DLRJIFUOBPOJNS-UHFFFAOYSA-N,CCOc1ccccc1,-2.3318416428
A-602,"(2-methyl-1-oxo-1-prop-2-enoxypropan-2-yl) 2-chloro-5-[3-methyl-2,6-dioxo-4-(trifluoromethyl)pyrimidin-1-yl]benzoate",JEDYYFXHPAIBGR-UHFFFAOYSA-N,CN1C(=O)N(C(=O)C=C1C(F)(F)F)c2ccc(Cl)c(c2)C(=O)OC(C)(C)C(=O)OCC=C,-4.676528089
A-604,iron(3+) ion tris(4-methylbenzene-1-sulfonate),FYMCOOOLDFPFPN-UHFFFAOYSA-K,[Fe+3].Cc1ccc(cc1)[S]([O-])(=O)=O.Cc2ccc(cc2)[S]([O-])(=O)=O.Cc3ccc(cc3)[S]([O-])(=O)=O,-0.0080331121
A-606,prop-2-en-1-yl 2-phenoxyacetate,VUFZVGQUAVDKMC-UHFFFAOYSA-N,C=CCOC(=O)COc1ccccc1,-2.5363732086
A-607,ammonium iodide,UKFWSNCTAHXBQN-UHFFFAOYSA-N,[NH4+].[I-],1.0867760203
A-610,hexanedioic acid - piperazine (1:1),BVEGEKOBSPXUJS-UHFFFAOYSA-N,OC(=O)CCCCC(O)=O.C1CNCCN1,-0.6232866861
A-614,"4-amino-2,5-dimethoxy-N-methylbenzenesulfonamide",CISVVDNATRQDNU-UHFFFAOYSA-N,CN[S](=O)(=O)c1cc(OC)c(N)cc1OC,-3.6510805625
A-616,phosphoric acid; urea,DZHMRSPXDUUJER-UHFFFAOYSA-N,NC(N)=O.O[P](O)(O)=O,0.5376020021
A-617,urea,XSQUKJJJFZCRTK-UHFFFAOYSA-N,NC(N)=O,0.9578400994
A-618,1H-benzimidazol-2-ol,SILNNFMWIMZVEQ-UHFFFAOYSA-N,O=C1Nc2ccccc2N1,-2.3927519971
A-619,carbon monoxide; iron,FYOFOKCECDGJBF-UHFFFAOYSA-N,[Fe].[C-]#[O+].[C-]#[O+].[C-]#[O+].[C-]#[O+].[C-]#[O+],-3.2920233513
A-620,3-methyl-5-(prop-2-enoyloxy)pentyl prop-2-enoate,IQGIEMYBDGDBMR-UHFFFAOYSA-N,CC(CCOC(=O)C=C)CCOC(=O)C=C,-2.6214335505
A-622,3-chloroaniline,PNPCRKVUWYDDST-UHFFFAOYSA-N,Nc1cccc(Cl)c1,-1.3733684129
A-624,decahydronaphthalen-2-yl acetate,XKCLIPLFEJSOAT-UHFFFAOYSA-N,CC(=O)OC1CCC2CCCCC2C1,-3.5605044152
A-625,"2-hexadecan-2-yl-4,6-dimethylphenol",TVWGHFVGFWIHFN-UHFFFAOYSA-N,CCCCCCCCCCCCCCC(C)c1cc(C)cc(C)c1O,-7.3357073227
A-626,cyclopentene,LPIQUOYDBNQMRZ-UHFFFAOYSA-N,C1CC=CC1,-2.1049144818
A-628,"2-[(6-oxobenzo[c][2,1]benzoxaphosphinin-6-yl)methyl]butanedioic acid",XZAXQWXHBDKYJI-UHFFFAOYSA-N,OC(=O)CC(C[P]1(=O)Oc2ccccc2c3ccccc13)C(O)=O,-2.8135095056
A-638,methane; sulfuric acid,LRPCLTPZMUIPFK-UHFFFAOYSA-N,C.O[S](O)(=O)=O,-3.3330935045
A-639,hexafluoroethane,WMIYKQLTONQJES-UHFFFAOYSA-N,FC(F)(F)C(F)(F)F,-2.4239072122
A-640,"(4E)-5,9-dimethyldeca-4,8-dienal",MMLYERLRGHVBEK-WQLSENKSSA-N,CC(C)=CCC\C(C)=C/CCC=O,-3.5383035446
A-645,phenyl methacrylate,QIWKUEJZZCOPFV-UHFFFAOYSA-N,CC(=C)C(=O)Oc1ccccc1,-2.4948513605
A-646,cobalt(2+) bis(4-oxopent-2-en-2-olate),UTYYEGLZLFAFDI-UHFFFAOYSA-L,[Co++].CC([O-])=CC(C)=O.CC([O-])=CC(C)=O,-1.6975300994
A-647,"2,6,6-trimethylcyclohexa-1,3-diene-1-carbaldehyde",SGAWOGXMMPSZPB-UHFFFAOYSA-N,CC1=C(C=O)C(C)(C)CC=C1,-2.4650077569
A-648,"2,6-di-tert-butyl-4-[(dimethylamino)methyl]phenol",VMZVBRIIHDRYGK-UHFFFAOYSA-N,CN(C)Cc1cc(c(O)c(c1)C(C)(C)C)C(C)(C)C,-2.7113870277
A-649,4-cyclohexyl-4-methylpentan-2-one,OAFJAALOFJVHMK-UHFFFAOYSA-N,CC(=O)CC(C)(C)C1CCCCC1,-3.5481536429
A-652,5-methyl-2-(propan-2-yl)cyclohexan-1-ol,NOOLISFMXDJSKH-UHFFFAOYSA-N,CC(C)C1CCC(C)CC1O,-2.4880091207
A-653,Cobalt molybdate,KYYSIVCCYWZZLR-UHFFFAOYSA-N,[Co++].[O-][Mo]([O-])(=O)=O,-2.6343205414
A-655,"1-N-phenylbenzene-1,4-diamine",ATGUVEKSASEFFO-UHFFFAOYSA-N,Nc1ccc(Nc2ccccc2)cc1,-2.5631304762
A-656,"N,2-dimethyl-N-phenylbutanamide",LNODIGSABOGNBQ-UHFFFAOYSA-N,CCC(C)C(=O)N(C)c1ccccc1,-1.5805795126
A-657,dimethoxymethylvinylsilane,ZLNAFSPCNATQPQ-UHFFFAOYSA-N,CO[Si](C)(OC)C=C,0.5776235848
A-659,pyridine-3-carboxamide,DFPAKSUCGFBDDF-UHFFFAOYSA-N,NC(=O)c1cccnc1,0.6121583154
A-660,bis(4-hydroxy-N-methylanilinium) sulfate,ZVNPWFOVUDMGRP-UHFFFAOYSA-N,CNc1ccc(O)cc1.CNc2ccc(O)cc2.O[S](O)(=O)=O,-0.838079267
A-661,"trisodium (4E)-3-oxo-4-[2-(4-sulfonatonaphthalen-1-yl)hydrazin-1-ylidene]-3,4-dihydronaphthalene-2,7-disulfonate",VOBHRQFELWTZFS-DXVNCNPQSA-K,[Na+].[Na+].[Na+].[O-][S](=O)(=O)c1ccc2c(c1)C=C(C(=O)/C2=N/Nc3ccc(c4ccccc34)[S]([O-])(=O)=O)[S]([O-])(=O)=O,-1.0824140873
A-662,"3,5-dimethylphenol",TUAMRELNJMMDMT-UHFFFAOYSA-N,Cc1cc(C)cc(O)c1,-1.3879839049
A-665,"2,2-bis[(prop-2-enoyloxy)methyl]butyl prop-2-enoate",DAKWPKUUDNSNPN-UHFFFAOYSA-N,CCC(COC(=O)C=C)(COC(=O)C=C)COC(=O)C=C,-2.772789495
A-666,"2,6-dimethylheptan-4-one",PTTPXKJBFFKCEK-UHFFFAOYSA-N,CC(C)CC(=O)CC(C)C,-2.4540578458
A-667,"4-allyl-1,2-dimethoxybenzene",ZYEMGPIYFIJGTP-UHFFFAOYSA-N,COc1ccc(CC=C)cc1OC,-2.5520132395
A-668,7-amino-4-hydroxynaphthalene-2-sulfonic acid,KYARBIJYVGJZLB-UHFFFAOYSA-N,Nc1ccc2c(O)cc(cc2c1)[S](O)(=O)=O,-2.6798855726
A-669,aluminium(3+) ion 6-sulfonato-1-[(E)-2-(4-sulfonatophenyl)diazen-1-yl]naphthalen-2-olate,FFVVMXXUKCHQFS-UHFFFAOYSA-K,[Al+3].[O-]c1ccc2cc(ccc2c1N=Nc3ccc(cc3)[S]([O-])(=O)=O)[S]([O-])(=O)=O,-2.9368865529
A-673,methyl 2-[3-(acetyloxy)-2-pentylcyclopent-2-en-1-yl]acetate,IVEVYZAZHQVESM-UHFFFAOYSA-N,CCCCCC1=C(CCC1CC(=O)OC)OC(C)=O,-3.7219886724
A-674,4-ethenylcyclohex-1-ene,BBDKZWKEPDTENS-UHFFFAOYSA-N,C=CC1CCC=CC1,-3.3351930307
A-675,"5-hydroxy-2-(3-hydroxy-4-methoxyphenyl)-4-oxo-3,4-dihydro-2H-chromen-7-yl 6-O-(6-deoxy-alpha-L-mannopyranosyl)-beta-D-glucopyranoside",QUQPHWDTPGMPEX-QJBIFVCTSA-N,COc1ccc(cc1O)[C@@H]2CC(=O)c3c(O)cc(O[C@@H]4O[C@H](CO[C@@H]5O[C@@H](C)[C@H](O)[C@@H](O)[C@H]5O)[C@@H](O)[C@H](O)[C@H]4O)cc3O2,-5.0104856455
A-676,2-[(2-hydroxyethyl)[(9E)-octadec-9-en-1-yl]amino]ethan-1-ol,BITAPBDLHJQAID-MDZDMXLPSA-N,CCCCCCCC/C=C/CCCCCCCCN(CCO)CCO,-4.7801182897
A-677,"tributyl benzene-1,2,4-tricarboxylate",RJIFVNWOLLIBJV-UHFFFAOYSA-N,CCCCOC(=O)c1ccc(C(=O)OCCCC)c(c1)C(=O)OCCCC,-4.807173711
A-679,"1-(butan-2-yl)-4-{4-[4-(4-hydroxyphenyl)piperazin-1-yl]phenyl}-4,5-dihydro-1H-1,2,4-triazol-5-one",FFAQILVGBAELHN-UHFFFAOYSA-N,CCC(C)N1N=CN(C1=O)c2ccc(cc2)N3CCN(CC3)c4ccc(O)cc4,-4.8285219564
A-680,3-(trimethoxysilyl)propyl prop-2-enoate,KBQVDAIIQCXKPI-UHFFFAOYSA-N,CO[Si](CCCOC(=O)C=C)(OC)OC,-4.6063887787
A-683,undecan-1-ol,KJIOQYGWTQBHNH-UHFFFAOYSA-N,CCCCCCCCCCCO,-4.4804406676
A-686,barium(+2) cation; dioxidoboron,MLPBXDBEWJPBBI-UHFFFAOYSA-N,[Ba++].[O-][B][O-],-2.3407335191
A-689,"(1S,2S,4S)-1,7,7-trimethylbicyclo[2.2.1]heptan-2-yl prop-2-enoate",PSGCQDPCAWOCSH-BOURZNODSA-N,CC1(C)[C@H]2CC[C@]1(C)C(C2)OC(=O)C=C,-4.5830924552
A-690,"2-quinolin-2-yl-1H-indene-1,3(2H)-dione",IZMJMCDDWKSTTK-UHFFFAOYSA-N,O=C1C(c2ccc3ccccc3n2)C(=O)c4ccccc14,-4.7011861265
A-691,tert-butoxy 2-ethylhexyl carbonate,BRQMAAFGEXNUOL-UHFFFAOYSA-N,CCCCC(CC)COC(=O)OOC(C)(C)C,-4.6599585126
A-692,dicyclopentyldimethoxysilane,JWCYDYZLEAQGJJ-UHFFFAOYSA-N,CO[Si](OC)(C1CCCC1)C2CCCC2,-4.6327996787
A-693,"3,3,5-trimethylcyclohexyl 2-methylprop-2-enoate",DABQKEQFLJIRHU-UHFFFAOYSA-N,CC1CC(CC(C)(C)C1)OC(=O)C(C)=C,-4.5985985087
A-697,"Butanal, reaction products with aniline",SRGBNANKQPZXFZ-UHFFFAOYSA-N,CCCC=O.Nc1ccccc1,-4.5021013295
A-698,zinc(2+) ion didodecanoate,GPYYEEJOMCKTPR-UHFFFAOYSA-L,[Zn++].CCCCCCCCCCCC([O-])=O.CCCCCCCCCCCC([O-])=O,-4.9505314842
A-699,"3-methyl-N-(3-{3-methyl-N-[2-(3-methyl-N-{2-[2-(2-methylheptadecyl)-4,5-dihydro-1H-imidazol-1-yl]ethyl}octadecanamido)ethyl]octadecanamido}propyl)octadecanamide; 3-methyl-N-(3-{[2-(3-methyl-N-{2-[2-(2-methylheptadecyl)-4,5-dihydro-1H-imidazol-1-yl]ethyl}octadecanamido)ethyl]amino}propyl)octadecanamide; 3-methyl-N-(3-{[2-({2-[2-(2-methylheptadecyl)-4,5-dihydro-1H-imidazol-1-yl]ethyl}amino)ethyl]amino}propyl)octadecanamide; 3-methyl-N-[3-({2-[(2-{[2-(3-methyloctadecanamido)ethyl]amino}ethyl)amino]ethyl}amino)propyl]octadecanamide; 3-methyl-N-{2-[(2-{3-methyl-N-[2-(piperazin-1-yl)ethyl]octadecanamido}ethyl)amino]ethyl}octadecanamide; 3-methyl-N-{2-[2-(2-methylheptadecyl)-4,5-dihydro-1H-imidazol-1-yl]ethyl}-N-[2-(piperazin-1-yl)ethyl]octadecanamide; 3-methyl-N-{3-[(2-{3-methyl-N-[2-({2-[(4-methylnonadec-1-en-2-yl)amino]ethyl}amino)ethyl]octadecanamido}ethyl)amino]propyl}octadecanamide",CDCSRZWJRXOXLQ-UHFFFAOYSA-N,CCCCCCCCCCCCCCCCCC(O)=O.NCCNCCNCCNCCN,-4.9604194489
A-701,(3Z)-hex-3-en-1-yl 2-hydroxybenzoate,IEPWIPZLLIOZLU-ONEGZZNKSA-N,CC/C=C/CCOC(=O)c1ccccc1O,-4.6439814041
A-705,"(2S,5R)-5-methyl-2-(propan-2-yl)cyclohexan-1-one",NFLGAXVYCFJBMK-BDAKNGLRSA-N,CC(C)[C@@H]1CC[C@@H](C)CC1=O,-2.4918772305
A-706,4-(methoxycarbonyl)-3-nitrobenzoic acid,MIIADZYPHVTLPR-UHFFFAOYSA-N,COC(=O)c1ccc(cc1[N+]([O-])=O)C(O)=O,-2.6570018481
A-708,"1,3,5-trimethylbenzene",AUHZEENZYGFFBQ-UHFFFAOYSA-N,Cc1cc(C)cc(C)c1,-3.382657059
A-709,2-methyl-6-methylideneoct-7-en-2-yl acetate,DCXXKSXLKWAZNO-UHFFFAOYSA-N,CC(=O)OC(C)(C)CCCC(=C)C=C,-3.5974164985
A-713,2-chloro-1-methyl-4-nitrobenzene,LLYXJBROWQDVMI-UHFFFAOYSA-N,Cc1ccc(cc1Cl)[N+]([O-])=O,-3.5442781768
A-714,"N,N,N-trimethyloctadecan-1-aminium chloride",VBIIFPGSPJYLRR-UHFFFAOYSA-M,[Cl-].CCCCCCCCCCCCCCCCCC[N+](C)(C)C,-3.8514567881
A-718,"N,N-dipropylpropan-1-amine",YFTHZRPMJXBUME-UHFFFAOYSA-N,CCCN(CCC)CCC,-2.4722202552
A-719,ammonia,QGZKDVFQNNGYKY-UHFFFAOYSA-N,N,1.4518068893
A-722,2-oxo-N-{6-[(2-oxoazepane-1-carbonyl)amino]hexyl}azepane-1-carboxamide,YOVRNJUIHVNXCB-UHFFFAOYSA-N,O=C1CCCCCN1C(=O)NCCCCCCNC(=O)N2CCCCCC2=O,-3.9064006561
A-724,3-methylbutyl 3-methylbutanoate,XINCECQTMHSORG-UHFFFAOYSA-N,CC(C)CCOC(=O)CC(C)C,-3.5540595353
A-725,2-propylheptan-1-ol,YLQLIQIAXYRMDL-UHFFFAOYSA-N,CCCCCC(CO)CCC,-3.5181985232
A-726,4-[2-(4-aminophenyl)ethyl]aniline,UHNUHZHQLCGZDA-UHFFFAOYSA-N,Nc1ccc(CCc2ccc(N)cc2)cc1,-3.6457005741
A-728,methyl nicotinate,YNBADRVTZLEFNH-UHFFFAOYSA-N,COC(=O)c1cccnc1,-0.4595508588
A-731,"calcium 2,3-dihydroxybutanedioate",GUPPESBEIQALOS-ZVGUSBNCSA-N,[Ca++].O[C@H]([C@@H](O)C(O)=O)C(O)=O,-2.6024346943
A-738,4-tert-butylbenzoic acid,KDVYCTOWXSLNNI-UHFFFAOYSA-N,CC(C)(C)c1ccc(cc1)C(O)=O,-3.5779623367
A-740,chlorocopper,OXBLHERUFWYNTN-UHFFFAOYSA-M,[Cl-].[Cu+],-3.3235329498
A-741,molybdenum nickel tetraoxide,AXSAYZUZQSGYFU-UHFFFAOYSA-N,[Ni++].[O-][Mo++]([O-])([O-])[O-],-1.6720680623
A-742,8-aminonaphthalene-2-sulfonic acid,QEZZCWMQXHXAFG-UHFFFAOYSA-N,Nc1cccc2ccc(cc12)[S](O)(=O)=O,-1.682279323
A-743,"1,1,1,2,2-pentafluoroethane",GTLACDSXYULKMZ-UHFFFAOYSA-N,FC(F)C(F)(F)F,-1.4164957907
A-744,"2,3-dimethylphenol",QWBBPBRQALCEIZ-UHFFFAOYSA-N,Cc1cccc(O)c1C,-1.4241960776
A-746,5-chloro-7-iodoquinolin-8-ol,QCDFBFJGMNKBDO-UHFFFAOYSA-N,Oc1c(I)cc(Cl)c2cccnc12,-1.8222562261
A-749,tert-butyl 2-ethylhexaneperoxoate,WYKYCHHWIJXDAO-UHFFFAOYSA-N,CCCCC(CC)C(=O)OOC(C)(C)C,-3.6695176909
A-750,"2,6,6-trimethylbicyclo[3.1.1]heptane-3-carbaldehyde",VUNCLQCPKWLBRY-UHFFFAOYSA-N,CC1C(CC2CC1C2(C)C)C=O,-3.5580403929
A-752,2-methyl-4-phenylbutan-2-ol,YXVSKJDFNJFXAJ-UHFFFAOYSA-N,CC(C)(O)CCc1ccccc1,-1.555639677
A-756,4-nitrophenyl acetate,QAUUDNIGJSLPSX-UHFFFAOYSA-N,CC(=O)Oc1ccc(cc1)[N+]([O-])=O,-2.5992568252
A-758,1-(1-benzofuran-2-yl)ethan-1-one,YUTFQTAITWWGFH-UHFFFAOYSA-N,CC(=O)c1oc2ccccc2c1,-2.5484883965
A-760,2-amino-6-chloro-4-nitrophenol,HXKQPFKBBNRPEK-UHFFFAOYSA-N,[Cl-].[NH3+]c1cc(cc(Cl)c1O)[N+]([O-])=O,-2.6990298363
A-761,1-[(2-tert-butylcyclohexyl)oxy]butan-2-ol,GQBVHGLNSHPKPG-UHFFFAOYSA-N,CCC(O)COC1CCCCC1C(C)(C)C,-3.698734262
A-770,"menthane, monohydroperoxy derivative",OZTWDFWAMMUDHQ-UHFFFAOYSA-N,CC(C)C1CCC(C)CC1OO,-2.5888216416
A-772,"2-methylpropyl 3,5-diamino-4-chlorobenzoate",KHUIRIRTZCOEMK-UHFFFAOYSA-N,CC(C)COC(=O)c1cc(N)c(Cl)c(N)c1,-2.738284824
A-773,1-benzoylcyclohexan-1-ol,QNODIIQQMGDSEF-UHFFFAOYSA-N,OC1(CCCCC1)C(=O)c2ccccc2,-2.6647801935
A-775,benzylhydrazine dihydrochloride,MSJHOJKVMMEMNX-UHFFFAOYSA-N,[H+].[H+].[Cl-].[Cl-].NNCc1ccccc1,-1.6467890106
A-777,2-ethoxy-3-[[4-[2-(2H-tetrazol-5-yl)phenyl]phenyl]methyl]benzimidazole-4-carboxylic acid,HTQMVQVXFRQIKW-UHFFFAOYSA-N,CCOc1nc2cccc(C(O)=O)c2n1Cc3ccc(cc3)c4ccccc4c5n[nH]nn5,-6.4977813968
A-779,"2,4,6-trichloro-1,3,5-triazine",MGNCLNQXLYJVJD-UHFFFAOYSA-N,Clc1nc(Cl)nc(Cl)n1,-2.6223388564
A-780,2-tert-butyl-6-(3-tert-butyl-2-hydroxy-5-methoxyphenyl)-4-methoxyphenol,CBYWHFTZNVZQHV-UHFFFAOYSA-N,COc1cc(c(O)c(c1)C(C)(C)C)c2cc(OC)cc(c2O)C(C)(C)C,-6.7763112575
A-781,Tazobactam,LPQZKKCYTLCDGQ-WEDXCCLWSA-N,C[C@]1(Cn2ccnn2)[C@@H](N3[C@@H](CC3=O)[S]1(=O)=O)C(O)=O,-1.8384616763
A-784,N-methyl-N-phenylformamide,JIKUXBYRTXDNIY-UHFFFAOYSA-N,CN(C=O)c1ccccc1,-1.4947809467
A-787,"4-aminobenzene-1,3-disulfonic acid",IMUUNYPYNWXUBO-UHFFFAOYSA-N,Nc1ccc(cc1[S](O)(=O)=O)[S](O)(=O)=O,-1.7700930025
A-789,2-isopropyl-5-methylcyclohexanol,NOOLISFMXDJSKH-UTLUCORTSA-N,CC(C)[C@@H]1CC[C@@H](C)C[C@@H]1O,-2.5604043774
A-790,4-methoxy-3-nitrobenzoic acid,ANXBDAFDZSXOPQ-UHFFFAOYSA-N,COc1ccc(cc1[N+]([O-])=O)C(O)=O,-2.6613195143