ID,Name,InChIKey,SMILES,Solubility
B-2115,"benzoic acid, 2-(acetyloxy)-, 4-(acetylamino)phe",FEJKLNWAOXSSNR-UHFFFAOYSA-N,CC(=O)Nc1ccc(OC(=O)c2ccccc2OC(C)=O)cc1,-4.1949
B-2116,"piperidine, 1-(phenylsulfonyl)-",VRYWBMTXKFQBCA-UHFFFAOYSA-N,O=[S](=O)(N1CCCCC1)c2ccccc2,-2.5365
B-2117,"benzeneacetonitrile, .alpha.-(diethylamino)-",MNUHBMWEFILMEW-UHFFFAOYSA-N,CCN(CC)C(C#N)c1ccccc1,-0.9738
B-2121,"quinoline, 2-(nitromethyl)-",SIQRLWJNWZCECZ-UHFFFAOYSA-N,[O-][N+](=O)Cc1ccc2ccccc2n1,-2.0545
B-2122,ditalimfos (laptran),MTBZIGHNGSTDJV-UHFFFAOYSA-N,CCO[P](=S)(OCC)N1C(=O)c2ccccc2C1=O,-3.3522
B-2123,"hexanedioic acid, 2,5-dimercapto-",SUVZGLSQFGNBQI-UHFFFAOYSA-N,OC(=O)C(S)CCC(S)C(O)=O,-2.4758
B-2124,"l-aspartic acid, n-[(ethylthio)thioxomethyl]-",KKUMBCQWVRPGMH-BYPYZUCNSA-N,CCSC(=S)N[C@@H](CC(O)=O)C(O)=O,-1.3863
B-2125,"ethane, 1,1'-oxybis[2-[(2-chloroethyl)sulfonyl]-",IMQZHNMZKUCNAB-UHFFFAOYSA-N,ClCC[S](=O)(=O)CCOCC[S](=O)(=O)CCCl,-1.9408
B-2126,"1,4-benzenedicarboxylic acid, 2-methoxy-",VQBBXLZPRXHYBO-UHFFFAOYSA-N,COc1cc(ccc1C(O)=O)C(O)=O,-1.9916
B-2128,"acetamide, n-(4-chloro-2-methylphenyl)-",WMHHXYOPEQARIN-UHFFFAOYSA-N,CC(=O)Nc1ccc(Cl)cc1C,-2.3097
B-2129,dimethirimol,CJHXCRMKMMBYJQ-UHFFFAOYSA-N,CCCCC1=C(C)NC(=NC1=O)N(C)C,-2.2416
B-2130,"benzeneacetic acid, -[(sulfooxy)methyl]-, 8-meth",GMLBHJMTVBLXLJ-UHFFFAOYSA-N,CN1C2CCC1CC(C2)OC(=O)C(CO[S](O)(=O)=O)c3ccccc3,-1.5675
B-2133,cyclohexylacetic acid,LJOODBDWMQKMFB-UHFFFAOYSA-N,OC(=O)CC1CCCCC1,-1.6935
B-2134,"propanamide, n-hexadecyl-2-hydroxy-",SNUWGZLOWPBEIJ-UHFFFAOYSA-N,CCCCCCCCCCCCCCCCNC(=O)C(C)O,-3.6512
B-2135,"propanamide, 2-hydroxy-n-pentyl-",CBHYPXXMQKAMNM-UHFFFAOYSA-N,CCCCCNC(=O)C(C)O,-0.3825
B-2136,"d-glycero-d-gulo-heptopyranoside, phenyl, -",UWYXADYVSWKWAX-UHFFFAOYSA-N,OCC(O)C1OC(Oc2ccccc2)C(O)C(O)C1O,-1.5537
B-2137,"phosphonic acid, 3-(nitrophenyl)-",OXWXINKWKITCIH-UHFFFAOYSA-N,O[P](O)(=O)c1cccc(c1)[N+]([O-])=O,0.6835
B-2138,"3-pyridinecarboxylic acid, decyl ester",OVSJCKDIBDNMMK-UHFFFAOYSA-N,CCCCCCCCCCOC(=O)c1cccnc1,-3.1901
B-2139,"dl-leucine, n-formyl-",HFBHOAHFRNLZGN-UHFFFAOYSA-N,CC(C)CC(NC=O)C(O)=O,-0.7328
B-2141,"methanesulfonamide, n-(methylsulfonyl)-",ICTGBOFCIDHVPA-UHFFFAOYSA-N,C[S](=O)(=O)N[S](C)(=O)=O,0.0402
B-2142,"propionic acid, 3-methoxy-, propyl ester",JCMFJIHDWDKYIL-UHFFFAOYSA-N,CCCOC(=O)CCOC,-0.6598
B-2143,"1,1,4,4-tetramethoxy-but-2-ene",ZFGVCDSFRAMNMT-WAYWQWQTSA-N,COC(OC)\C=C/C(OC)OC,0.055
B-2144,"1h-pyrrole, 2,3-dihydro-1,5-dimethyl-",MFGQUMAXNNHCNG-UHFFFAOYSA-N,CN1CCC=C1C,0.1265
B-2146,"phosphonothioic  dihydrazide, p-phenyl-",HDCICIWMRHHDMV-UHFFFAOYSA-N,NN[P](=S)(NN)c1ccccc1,-1.425
B-2147,"acetic acid, (3,5-dimethylphenoxy)-",NIPZZANLNKBKIS-UHFFFAOYSA-N,Cc1cc(C)cc(OCC(O)=O)c1,-2.3527
B-2148,"2,8-dichlorodibenzofuran",IVVRJIDVYSPKFZ-UHFFFAOYSA-N,Clc1ccc2oc3ccc(Cl)cc3c2c1,-7.2135
B-2149,n-hexyl-lactamide,RUUHGTZPDZPPOC-UHFFFAOYSA-N,CCCCCCNC(=O)C(C)O,-0.9487
B-2150,2-acetoxy-propionic acid butyl ester,FRKISMRVEIRXFS-UHFFFAOYSA-N,CCCCOC(=O)C(C)OC(C)=O,-0.7536
B-2151,"1h-purine-2,6-dione, 8-ethyl-3,7-dihydro-1,3,7-t",DRWCPERSPGFNIK-UHFFFAOYSA-N,CCc1nc2N(C)C(=O)N(C)C(=O)c2n1C,-1.5687
B-2152,"imidodicarbonimidic diamide, n-2-naphthalenyl-",RDLIBCPWPNCFBW-UHFFFAOYSA-N,NC(N)=NC(N)=Nc1ccc2ccccc2c1,-2.5497
B-2153,"(2,5-dioxoimidazolidin-4-yl)acetic acid",DQQLZADYSWBCOX-UHFFFAOYSA-N,OC(=O)CC1NC(=O)NC1=O,-1.1517
B-2154,"phenol, 2-methyl-5-nitro-",UMFDLIXUUJMPSI-UHFFFAOYSA-N,Cc1ccc(cc1O)[N+]([O-])=O,-2.1851
B-2155,"carbamothioic acid, s-[2-oxo-2-(phenylamino)ethy",CEINNGQDMFZTJK-UHFFFAOYSA-N,NC(=O)SCC(=O)Nc1ccccc1,-1.3228
B-2156,"butanedioic acid, (diphenylmethylene)-, 1-ethyl",DLPKPLGMFNWETI-UHFFFAOYSA-N,CCOC(=O)C(CC(O)=O)=C(c1ccccc1)c2ccccc2,-2.1908
B-2157,"6h-purin-6-one, 2-chloro-1,7-dihydro-7-methyl-,",DSBMZQSBWWASSE-UHFFFAOYSA-N,Cn1cnc2nc(Cl)nc(NN)c12,-1.1427
B-2158,"4h-pyran-3,5-dicarboxylic acid, 2,6-dimethyl-4-o",JISSLTOKQRHSMJ-UHFFFAOYSA-N,CCOC(=O)C1=C(C)OC(=C(C(=O)OCC)C1=O)C,-1.5255
B-2159,"benzenamine, 2-iodo-5-nitro-",VKQOHFHGWCXKOA-UHFFFAOYSA-N,Nc1cc(ccc1I)[N+]([O-])=O,-4.4216
B-2160,"l-glutamic acid, n,n-bis(2-cyanoethyl)-",JQXSGQACFFFOIU-UHFFFAOYSA-N,OC(=O)CCC(N(CCC#N)CCC#N)C(O)=O,-0.2275
B-2161,"dl-methionine, n,n-bis(2-cyanoethyl)-",JXPCJFWAMGPAQN-UHFFFAOYSA-N,CSCCC(N(CCC#N)CCC#N)C(O)=O,-1.3279
B-2162,"propanoic acid, 2-hydroxy-, octyl ester",SFBIZPBTKROSDE-UHFFFAOYSA-N,CCCCCCCCOC(=O)C(C)O,-1.2726
B-2163,"2h-1,4-benzoxazin-3(4h)-one",QRCGFTXRXYMJOS-UHFFFAOYSA-N,O=C1COc2ccccc2N1,-2.5716
B-2164,"2-butenedioic acid, 2-propyl-, (e)-",CCKSYUMJLIMSQK-SNAWJCMRSA-N,CCC\C(=C/C(O)=O)C(O)=O,-1.1538
B-2165,"1,4-piperazinedicarboxylic acid, diethyl ester",NAEAAGULDNVNCW-UHFFFAOYSA-N,CCOC(=O)N1CCN(CC1)C(=O)OCC,-0.7288
B-2166,"2,6-di-sec-butylphenol",FHTGJZOULSYEOB-PHIMTYICSA-N,CC[C@@H](C)c1cccc([C@@H](C)CC)c1O,-5.0593
B-2167,"pyrene, 1-nitro-",ALRLPDGCPYIVHP-UHFFFAOYSA-N,[O-][N+](=O)c1ccc2ccc3cccc4ccc1c2c34,-7.3213
B-2168,"hydrazinecarboxamide, 1-ethyl-2-[(5-nitro-2-fura",JGPNCLKRECLYTO-BJMVGYQFSA-N,CCN(/N=C/c1oc(cc1)[N+]([O-])=O)C(N)=O,-2.9395
B-2169,6-phenylcaproic acid,JTXZPQIXIXYMDY-UHFFFAOYSA-N,OC(=O)CCCCCc1ccccc1,-2.6026
B-2170,3-methyl-3-heptanol,PQOSNJHBSNZITJ-UHFFFAOYSA-N,CCCCC(C)(O)CC,-1.7356
B-2171,"1-cyclopentene-1-carboxylic acid, 2,3,3-trimethy",CVPXQMUHAZMTEO-UHFFFAOYSA-N,CC1=C(CCC1(C)C)C(O)=O,-2.8871
B-2172,chlorpyrifos methyl,HRBKVYFZANMGRE-UHFFFAOYSA-N,CO[P](=S)(OC)Oc1nc(Cl)c(Cl)cc1Cl,-4.831
B-2173,triamcinolone hexacetonide,TZIZWYVVGLXXFV-FLRHRWPCSA-N,CC(C)(C)CC(=O)OCC(=O)[C@@]12OC(C)(C)O[C@@H]1C[C@H]3[C@@H]4CCC5=CC(=O)C=C[C@]5(C)[C@@]4(F)[C@@H](O)C[C@]23C,-5.1244
B-2174,"cyclopropane, ethoxy-",LZTCEQQSARXBHE-UHFFFAOYSA-N,CCOC1CC1,-0.6407
B-2175,"1h-purine-1-acetic acid, 2,3,6,7-tetrahydro-3,7-",YCTSCXLOPJCPDH-UHFFFAOYSA-M,Cn1cnc2N(C)C(=O)N(CC([O-])=O)C(=O)c12,-1.3769
B-2176,"3,6-dimethylpiperazine-2,5-dione",WWISPHBAYBECQZ-ZXZARUISSA-N,C[C@@H]1NC(=O)[C@@H](C)NC1=O,-0.1528
B-2177,"2-pyrrolidinecarboxamide, 5-oxo-n-phenyl-",DLHWPLFJAJCANU-UHFFFAOYSA-N,O=C1CCC(N1)C(=O)Nc2ccccc2,-1.3278
B-2178,"phenol, 4-(phenylthio)-",XAYCNCYFKLSMGR-UHFFFAOYSA-N,Oc1ccc(Sc2ccccc2)cc1,-2.7745
B-2179,"ethane, 1,1'-[oxybis(methyleneoxy)]bis-",ANPYLYUCGAFKNQ-UHFFFAOYSA-N,CCOCOCOCC,-0.1277
B-2180,"naphtho[1,2-c]furan-1(3h)-one",ARSOXHMEZHBPOS-UHFFFAOYSA-N,O=C1OCc2ccc3ccccc3c12,-3.3062
B-2181,"glycine, n-(2-furanylcarbonyl)-",KSPQDMRTZZYQLM-UHFFFAOYSA-N,OC(=O)CNC(=O)c1occc1,-0.7272
B-2182,"5-thiazolecarboxylic acid, 2-[[(4-aminophenyl)su",UVWBGXXTQBAIOZ-UHFFFAOYSA-N,Nc1ccc(cc1)[S](=O)(=O)Nc2sc(cn2)C(O)=O,-2.8741
B-2184,"butanedioic acid, 2,2-diethyl-",WKRCUUPMCASSBN-UHFFFAOYSA-N,CCC(CC)(CC(O)=O)C(O)=O,-0.7962
B-2185,"benzenepropanoic acid, .alpha.,.beta.-dihydroxy-",BNOUUNAFHCJIJD-UHFFFAOYSA-N,OC(C(O)c1ccccc1)C(O)=O,-0.3063
B-2186,"hydrocinnamic acid, .alpha.-ethylidene-",LUHNRLWMHQQYAM-UHFFFAOYSA-N,CC=C(Cc1ccccc1)C(O)=O,-2.5648
B-2187,"benzoic acid, 4-[(3-pyridinylcarbonyl)amino]-",LWFBUVHQVCTCKN-UHFFFAOYSA-N,OC(=O)c1ccc(NC(=O)c2cccnc2)cc1,-3.0832
B-2188,"2-propanone, 1,1-diethoxy-",SDMOBEHDSJVJHU-UHFFFAOYSA-N,CCOC(OCC)C(C)=O,-0.2059
B-2190,"1,8,15,22-tetraazacyclooctacosane-2,9,16,23-tetr",LAIGWNLGTIDKPL-UHFFFAOYSA-N,O=C1CCCCCNC(=O)CCCCCNC(=O)CCCCCNC(=O)CCCCCN1,-2.8126
B-2191,"isopropyl-4,4'-dichlorobenzilate",AXGUBXVWZBFQGA-UHFFFAOYSA-N,CC(C)OC(=O)C(O)(c1ccc(Cl)cc1)c2ccc(Cl)cc2,-5.3544
B-2192,endrocide (endox) (coumatetralyl),KIGBUEKEZHTCDR-UHFFFAOYSA-N,OC1=C(C2CCCc3ccccc23)C(=O)c4ccccc4O1,-4.8638
B-2193,"ethanol, 2-mercapto-, 1-acetate",YDLAHBBJAGGIJZ-UHFFFAOYSA-N,CC(=O)OCCS,-1.5
B-2194,terbacil,NBQCNZYJJMBDKY-UHFFFAOYSA-N,CC1=C(Cl)C(=O)N(C(=O)N1)C(C)(C)C,-2.4845
B-2195,"thioperoxydiphosphoric acid, tetramethyl ester",HUTQNWSTEVZUML-UHFFFAOYSA-N,CO[P](=S)(OC)SS[P](=S)(OC)OC,-4.3981
B-2196,"d-xylose, (aminocarbonyl)hydrazone",HJUOUZOJKPIETD-VPENINKCSA-N,NC(=O)NN=C[C@H](O)[C@@H](O)[C@H](O)CO,-0.1288
B-2197,"propanoic acid, 3-phosphono-",NLBSQHGCGGFVJW-UHFFFAOYSA-N,OC(=O)CC[P](O)(O)=O,0.5007
B-2198,".beta.-d-glucopyranose, 4-o-.beta.-d-galactopyra",GUBGYTABKSRVRQ-DCSYEGIMSA-N,OC[C@H]1O[C@@H](O[C@H]2[C@H](O)[C@@H](O)[C@H](O)O[C@@H]2CO)[C@H](O)[C@@H](O)[C@H]1O,-0.8167
B-2200,"ethanamine, 2,2'-thiobis[n,n-diethyl-",LYFNBXZVKYDWNX-UHFFFAOYSA-N,CCN(CC)CCSCCN(CC)CC,-2.3663
B-2202,5-oxo-3-phenyl-hexanoic acid,DUGWBMXFSCILOV-UHFFFAOYSA-N,CC(=O)CC(CC(O)=O)c1ccccc1,-1.4463
B-2203,"benzenamine, n-ethyl-n,2,4,6-tetranitro-",AWOPOGMEMRZDQH-UHFFFAOYSA-N,CCN(c1c(cc(cc1[N+]([O-])=O)[N+]([O-])=O)[N+]([O-])=O)[N+]([O-])=O,-3.7007
B-2204,"benzenamine, 4,4'-(1,2-ethynediyl)bis-",WAUKJWLKPXRNKT-UHFFFAOYSA-N,Nc1ccc(cc1)C#Cc2ccc(N)cc2,-2.4326
B-2205,"benzoic acid, 2-(2-hydroxybenzoyl)-",HNRPIUDTZLIYEC-UHFFFAOYSA-N,OC(=O)c1ccccc1C(=O)c2ccccc2O,-2.3428
B-2206,"phthalic acid, bis(2,2,2-trinitroethyl) ester",KPHWKKRARXZEEU-UHFFFAOYSA-N,[O-][N+](=O)C(COC(=O)c1ccccc1C(=O)OCC([N+]([O-])=O)([N+]([O-])=O)[N+]([O-])=O)([N+]([O-])=O)[N+]([O-])=O,-3.5782
B-2207,"2-butanol, 1,1,1-trichloro-",MJFSFJZFTQSCGW-UHFFFAOYSA-N,CCC(O)C(Cl)(Cl)Cl,-0.9481
B-2209,"1,3-dioxolane, 2-(2-methylpropyl)-",NLSSIIZCHYEPNV-UHFFFAOYSA-N,CC(C)CC1OCCO1,-0.3695
B-2210,"2(1h)-azecinone, octahydro-",KBLFLMTZLPQGIF-UHFFFAOYSA-N,O=C1CCCCCCCCN1,-1.0737
B-2211,"methanamine, n-chloro-",QXJIABOUHLYVHP-UHFFFAOYSA-N,CNCl,0.2806
B-2214,"propanoic acid, 2,3-dimercapto-",AIVVKKOTAISCNQ-UHFFFAOYSA-N,OC(=O)C(S)CS,-0.2374
B-2215,nifuroxime,PTBKFATYSVLSSD-ZZXKWVIFSA-N,O/N=C/c1oc(cc1)[N+]([O-])=O,-2.1934
B-2216,"2h-azepin-2-one, 1-benzoylhexahydro-",FEFQUIPMKBPKAR-UHFFFAOYSA-N,O=C1CCCCCN1C(=O)c2ccccc2,-2.1667
B-2217,c.i. disperse orange 13,OYLYPSTUVSONQA-UHFFFAOYSA-N,O=C1C=CC(C=C1)=NNc2ccc(N=Nc3ccccc3)c4ccccc24,-6.0092
B-2218,"2-bornanecarboxylic acid, 2-amino-",JZJKRUCQCUXZTD-UHFFFAOYSA-N,CC1(C)C2CCC1(C)C(N)(C2)C(O)=O,-1.5961
B-2219,"diethylamine, hydrobromide",AATGHKSFEUVOPF-UHFFFAOYSA-N,[Br-].CC[NH2+]CC,0.8123
B-2220,"benzenesulfonamide, 3-amino-4-methyl-",HCZDHXMDYWZPPN-UHFFFAOYSA-N,Cc1ccc(cc1N)[S](N)(=O)=O,-1.9169
B-2221,"lactamide, n-octyl-",QGZRRRDVKLFCCS-UHFFFAOYSA-N,CCCCCCCCNC(=O)C(C)O,-2.2827
B-2222,"lactamide, n-decyl-",NUXGELRNTBNWTF-UHFFFAOYSA-N,CCCCCCCCCCNC(=O)C(C)O,-3.3605
B-2223,"propanoic acid, 2-hydroxy-, 1-methyl-2-oxo-2-(2-",CPKMYVLHYLGADM-UHFFFAOYSA-N,CC(O)C(=O)OC(C)C(=O)OCC=C,-0.6826
B-2224,"d-glucitol, 1-deoxy-1-(methylamino)-",MBBZMMPHUWSWHV-UHFFFAOYSA-N,CNCC(O)C(O)C(O)C(O)CO,0.4084
B-2225,"propanoic acid, 2-(acetyloxy)-, methyl ester",QTFFGYLLUHQSAS-UHFFFAOYSA-N,COC(=O)C(C)OC(C)=O,-0.2617
B-2226,"glycine, n,n-bis(2-cyanoethyl)-",KIGQVWWOESIMBG-UHFFFAOYSA-N,OC(=O)CN(CCC#N)CCC#N,0.4578
B-2227,"5-quinoxalinamine, 6,7-dimethoxy-",ASEJLJNYULOOOK-UHFFFAOYSA-N,COc1cc2nccnc2c(N)c1OC,-1.7102
B-2228,"urea, 1-methyl-1-p-tolyl-",JPJWFNHMOPQSBQ-UHFFFAOYSA-N,CN(C(N)=O)c1ccc(C)cc1,-0.423
B-2229,"2,4-dimethyl-1-pentanol",OVOVDHYEOQJKMD-UHFFFAOYSA-N,CC(C)CC(C)CO,-1.6007
B-2230,"benzamide, 4-(aminosulfonyl)-",MWFFIRCXGDGFQB-UHFFFAOYSA-N,NC(=O)c1ccc(cc1)[S](N)(=O)=O,-2.3015
B-2231,"2,4(1h,3h)-pyrimidinedione, 5-methyl-1-(phenylme",YNHQGNHVHHZPTA-UHFFFAOYSA-N,CC1=CN(Cc2ccccc2)C(=O)NC1=O,-2.2558
B-2232,"1h-imidazole-4-sulfonic acid, 5-methyl-",KGDKWOYOXAFWLV-UHFFFAOYSA-N,Cc1[nH]cnc1[S](O)(=O)=O,0.188
B-2233,"2,3-quinoxalinedione, 1,4-dihydro-6-methyl-",HOHZZPCLZWZMOM-UHFFFAOYSA-N,Cc1ccc2NC(=O)C(=O)Nc2c1,-3.0418
B-2234,"benzoic acid, 4-bromo-3-nitro-",RVCTZJVBWNFYRU-UHFFFAOYSA-N,OC(=O)c1ccc(Br)c(c1)[N+]([O-])=O,-2.9677
B-2235,"9-acridinol, 9,10-dihydro-10-methyl-9-phenyl-",MILNADFLMJQLHM-UHFFFAOYSA-N,CN1c2ccccc2C(O)(c3ccccc3)c4ccccc14,-3.9031
B-2236,"2-cyclohexene-1,2-dicarboxylic acid, 1-methyl-",PCVSTKYNEXPKMI-UHFFFAOYSA-N,CC1(CCCC=C1C(O)=O)C(O)=O,-1.9642
B-2237,"dl-aspartic acid, n,n-bis(2-cyanoethyl)-",GNVTYGNEZLLRIK-UHFFFAOYSA-N,OC(=O)CC(N(CCC#N)CCC#N)C(O)=O,-1.5337
B-2238,"1,2-benzenedicarboxamide, n,n,n',n'-tetramethyl-",ZUMRZCLVLLRVIF-UHFFFAOYSA-N,CN(C)C(=O)c1ccccc1C(=O)N(C)C,0.5083
B-2239,"acetic acid, [2-methoxy-4-(2-propenyl)phenoxy]-",FQBPCNCFOCPCJP-UHFFFAOYSA-M,COc1cc(CC=C)ccc1OCC([O-])=O,-2.2786
B-2240,trichothecin,LJWZOKOFCBPNAG-SMRSBHFRSA-N,C\C=C/C(=O)O[C@@H]1C[C@H]2O[C@@H]3C=C(C)C(=O)C[C@]3(C)[C@]1(C)[C@@]24CO4,-2.9196
B-2241,amyl lactate,GXOHBWLPQHTYPF-UHFFFAOYSA-N,CCCCCOC(=O)C(C)O,-1.2047
B-2242,cloxyfonac,ZJRUTGDCLVIVRD-UHFFFAOYSA-N,OCc1cc(Cl)ccc1OCC(O)=O,-2.0347
B-2243,allyxycarb [bsi:iso],FBEHFRAORPEGFH-UHFFFAOYSA-N,CNC(=O)Oc1cc(C)c(N(CC=C)CC=C)c(C)c1,-3.5932
B-2244,3-chlorodiphenyl ether,BMURONZFJJPAOK-UHFFFAOYSA-N,Clc1cccc(Oc2ccccc2)c1,-4.2107
B-2245,(r)-(-)-carvone,ULDHMXUKGWMISQ-SECBINFHSA-N,CC(=C)[C@@H]1CC=C(C)C(=O)C1,-2.0608
B-2246,"salicylanilide, 4'-chloro-5-nitro-",CDYKTFABNOULII-UHFFFAOYSA-N,Oc1ccc(cc1C(=O)Nc2ccc(Cl)cc2)[N+]([O-])=O,-5.122
B-2247,"salicylanilide, 4'-chloro-3-nitro-",UOHLBUBEMXVTMQ-UHFFFAOYSA-N,Oc1c(cccc1[N+]([O-])=O)C(=O)Nc2ccc(Cl)cc2,-4.5452
B-2248,"alanine, n-(2-bromo-3-methylbutyryl)-, dl-",AXXGBXUAFMEEMQ-UHFFFAOYSA-N,CC(C)C(Br)C(=O)NC(C)C(O)=O,-0.4825
B-2249,pentoxifylline,BYPFEZZEUUWMEJ-UHFFFAOYSA-N,Cn1cnc2N(C)C(=O)N(CCCCC(C)=O)C(=O)c12,-0.558
B-2250,"benzoic acid, 4-hydroxy-, pentyl ester",ZNSSPLQZSUWFJT-UHFFFAOYSA-N,CCCCCOC(=O)c1ccc(O)cc1,-3.8135
B-2251,norgestrel,WWYNJERNGUHSAO-XUDSTZEESA-N,CC[C@]12CC[C@H]3[C@@H](CCC4=CC(=O)CC[C@H]34)[C@@H]1CC[C@@]2(O)C#C,-5.2567
B-2252,"1,3-benzodioxole-5-acetaldehyde",RRMZTAWQQFJQHL-UHFFFAOYSA-N,O=CCc1ccc2OCOc2c1,-1.96
B-2253,"4-oxo-1,2,3,4-tetrahydro-<2>naphthoic acid",UYNMKOITXUEVCZ-UHFFFAOYSA-N,OC(=O)C1CC(=O)c2ccccc2C1,-2.1031
B-2254,eglinazine ethyl,YESXTECNXIKUMM-UHFFFAOYSA-N,CCNc1nc(Cl)nc(NCC(=O)OCC)n1,-2.9374
B-2255,"l-serine, n-l-seryl-",XZKQVQKUZMAADP-UHFFFAOYSA-N,NC(CO)C(=O)NC(CO)C(O)=O,-0.5847
B-2256,"1,2-cyclopentanedione, dioxime",QHWNFVBTROFACM-UHFFFAOYSA-N,ONC1=C(CCC1)N=O,-1.9937
B-2257,"2-pyrrolidinone, 5-methyl-1-phenyl-",VKSABXHARNALNR-UHFFFAOYSA-N,CC1CCC(=O)N1c2ccccc2,-0.8457
B-2259,"1,2-benzenedicarboxylic acid, 3-nitro-, 2-methyl",UTEQVEMDYYOJGM-UHFFFAOYSA-N,COC(=O)c1c(cccc1[N+]([O-])=O)C(O)=O,-2.0853
B-2260,"phthalic acid, 3-nitro-, 2-propyl ester",UWMQVYAFMSNSPZ-UHFFFAOYSA-M,CC(C)OC(=O)c1cccc(c1C([O-])=O)[N+]([O-])=O,-2.3466
B-2261,"phthalic acid, 3-nitro-, 2-isopropyl ester",VLYOOXLMUKHFNY-UHFFFAOYSA-M,CC(C)OC(=O)c1c(cccc1[N+]([O-])=O)C([O-])=O,-2.4897
B-2262,"phthalic acid, 3-nitro-, 2-isobutyl ester",ITMRQGQCULJEJR-UHFFFAOYSA-M,CC(C)(C)OC(=O)c1cccc(c1C([O-])=O)[N+]([O-])=O,-3.0467
B-2263,"phthalic acid, 3-nitro-, isopentyl ester",WDTZUHJWPOQOFX-UHFFFAOYSA-M,CC(C)CCOC(=O)c1cccc(c1C([O-])=O)[N+]([O-])=O,-3.0689
B-2264,"phosphinic acid, mesityl-",URXMWXKQTQWZQB-UHFFFAOYSA-N,Cc1cc(C)c(c(C)c1)[PH](O)=O,-2.7896
B-2265,sec-butyl methyl ether,FVNIMHIOIXPIQT-UHFFFAOYSA-N,CCC(C)OC,-0.7306
B-2266,"1,3-propanediol, 2-(2-propenyloxy)-",IGDCJKDZZUALAO-UHFFFAOYSA-N,OCC(CO)OCC=C,0.481
B-2267,"guanidine, n-methyl-n,n'-dinitro-",SRKQWNFPTBNUKE-UHFFFAOYSA-N,CN(C(/N)=N/[N+]([O-])=O)[N+]([O-])=O,-0.6104
B-2268,"phthalic acid, 3-nitro-, 2-butyl ester",FMPUSJAPIITOEY-UHFFFAOYSA-M,CCC(C)OC(=O)c1cccc(c1C([O-])=O)[N+]([O-])=O,-2.7193
B-2270,"1,2-dimethylcyclohexane (trans)",KVZJLSYJROEPSQ-YUMQZZPRSA-N,C[C@H]1CCCC[C@@H]1C,-4.3341
B-2272,serine,MTCFGRXMJLQNBG-REOHCLBHSA-N,N[C@@H](CO)C(O)=O,-0.3861
B-2273,glutamic acid,WHUUTDBJXJRKMK-UHFFFAOYSA-N,NC(CCC(O)=O)C(O)=O,-0.9916
B-2274,"2,4'-dichlorodiphenyl ether",MWKULKMSBBSGTP-UHFFFAOYSA-N,Clc1ccc(Oc2ccccc2Cl)cc1,-5.52
B-2275,"acetamide, n,n'-(phenylmethylene)bis-",JFUUKHUKGAQKIW-UHFFFAOYSA-N,CC(=O)NC(NC(C)=O)c1ccccc1,-1.3144
B-2277,azodrin,KRTSDMXIXPKRQR-AATRIKPKSA-N,CNC(=O)\C=C(/C)O[P](=O)(OC)OC,0.6514
B-2278,"benzene, 1,2,4,5-tetrachloro-3-methoxy-",WMMFIDNWZNCBCT-UHFFFAOYSA-N,COc1c(Cl)c(Cl)cc(Cl)c1Cl,-5.1307
B-2279,"d-galactose, (aminocarbonyl)hydrazone",NOUQGOYNEGWDCZ-XLUWADSXSA-N,NC(=O)N\N=C\C(O)C(O)C(O)C(O)CO,-0.4257
B-2280,"nicotinic acid, butyl ester",DQULIMIQTCDUAN-UHFFFAOYSA-N,CCCCOC(=O)c1cccnc1,-1.8367
B-2281,"1,3-propanediol, monobenzoate",BZISNWGGPWSXTK-UHFFFAOYSA-N,OCCCOC(=O)c1ccccc1,-1.2558
B-2283,dioxacarb,SDKQRNRRDYRQKY-UHFFFAOYSA-N,CNC(=O)Oc1ccccc1C2OCCO2,-1.5706
B-2285,4-chlorophenyl phenyl ether,PGPNJCAMHOJTEF-UHFFFAOYSA-N,Clc1ccc(Oc2ccccc2)cc1,-4.7925
B-2287,"benzene, 1-bromo-2-(1-methylethyl)-",LECYCYNAEJDSIL-UHFFFAOYSA-N,CC(C)c1ccccc1Br,-4.1898
B-2289,"phosphinic acid, dibutyl-, ethyl ester",ODVIGXMRBJCIPC-UHFFFAOYSA-N,CCCC[P](=O)(CCCC)OCC,-1.2005
B-2290,4-chloro-5-methyl-2-nitrophenol,JBMGJOKJUYGIJH-UHFFFAOYSA-N,Cc1cc(O)c(cc1Cl)[N+]([O-])=O,-4.3901
B-2291,"4-picoline, 2-chloro-6-methoxy-alpha,alpha,alpha",RPCKKUFLSMORHB-UHFFFAOYSA-N,COc1cc(cc(Cl)n1)C(Cl)(Cl)Cl,-4.3635
B-2292,"acetamide, n-acetyl-n-(4-ethoxyphenyl)-",QGKJDERCEAREGO-UHFFFAOYSA-N,CCOc1ccc(cc1)N(C(C)=O)C(C)=O,-1.947
B-2293,"phosphoric acid, dibutyl ethyl ester",NAIBHQRYLPOHGG-UHFFFAOYSA-N,CCCCO[P](=O)(OCC)OCCCC,-1.8456
B-2294,"phosphoric acid, dibutyl methyl ester",LPRHLAXCXZTKNI-UHFFFAOYSA-N,CCCCO[P](=O)(OC)OCCCC,-1.4995
B-2295,5-quinolinecarboxylic acid,RAYMXZBXQCGRGX-UHFFFAOYSA-N,OC(=O)c1cccc2ncccc12,-2.6774
B-2296,"chloramben, methyl ester",DTSSCQVCVYZGSI-UHFFFAOYSA-N,COC(=O)c1cc(Cl)cc(N)c1Cl,-3.2634
B-2297,"2,2,3-trimethyl-3-pentanol",KLIHWYNSISMOMR-UHFFFAOYSA-N,CCC(C)(O)C(C)(C)C,-1.2708
B-2298,"butanediamide, n,n,n',n'-tetramethyl-",RCWUFNWXCIKHPC-UHFFFAOYSA-N,CN(C)C(=O)CCC(=O)N(C)C,0.5035
B-2299,"propanoic acid, 3,3'-diselenobis-",AXJLEYVRLPNPGF-UHFFFAOYSA-N,OC(=O)CC[Se][Se]CCC(O)=O,-2.2681
B-2300,"2,5-piperazinedione, 1,4-bis(hydroxymethyl)-",YJJCHWPBSSONRM-UHFFFAOYSA-N,OCN1CC(=O)N(CO)CC1=O,-0.4168
B-2301,"barbituric acid, 5-ipr",GFPIGNBQTXNNAG-UHFFFAOYSA-N,CC(C)C1C(=O)NC(=O)NC1=O,-1.4556
B-2302,"phosphonic acid, 4-morpholinyl-, diphenyl ester",YHQZCZRZUDDZTA-UHFFFAOYSA-N,O=[P](Oc1ccccc1)(Oc2ccccc2)N3CCOCC3,-2.1425
B-2303,n-methyl-n-nitrosoacetamide,FFLFWNRFMZRFKU-UHFFFAOYSA-N,CN(N=O)C(C)=O,-0.7684
B-2304,endrin aldehyde,HCTWZIFNBBCVGM-UHFFFAOYSA-N,ClC1(Cl)C2(Cl)C3C(CC4C3C1(Cl)C5(Cl)C4C25Cl)C=O,-7.2006
B-2305,sulfur dioxide,RAHZWNYVWXNFOC-UHFFFAOYSA-N,O=[S]=O,0.2235
B-2306,"benzenamine, n-ethyl-2,4,6-trinitro-",JRLUWLIIVKSPPT-UHFFFAOYSA-N,CCNc1c(cc(cc1[N+]([O-])=O)[N+]([O-])=O)[N+]([O-])=O,-3.4085
B-2307,"4-benzothiazolol, 2-amino-",PFQJPSASUCHKRO-UHFFFAOYSA-N,Nc1sc2cccc(O)c2n1,-1.9196
B-2308,"3-furancarboxylic acid, tetrahydro-3-methyl-2-ox",OCGGZLKMMJSXBM-UHFFFAOYSA-N,CC1(CCOC1=O)C(O)=O,0.8412
B-2309,"1,2-anthracenedicarboxylic acid, 9,10-dihydro-9,",QQPQYWGNVMIGAF-UHFFFAOYSA-N,OC(=O)c1ccc2C(=O)c3ccccc3C(=O)c2c1C(O)=O,-2.8141
B-2310,"cytidine, 2',3'-dideoxy-",WREGKURFCTUGRC-POYBYMJQSA-N,NC1=NC(=O)N(C=C1)[C@H]2CC[C@@H](CO)O2,-0.4416
B-2311,"1,4-dioxane, 2,5-dimethoxy-2,5-dimethyl-",UUGSNNUEVKTATH-UHFFFAOYSA-N,COC1(C)COC(C)(CO1)OC,-1.246
B-2312,"acetic acid, [2-methoxy-4-(1-propenyl)phenoxy]-",UORQJKKOBXSGRG-ONEGZZNKSA-M,COc1cc(\C=C\C)ccc1OCC([O-])=O,-1.5826
B-2313,azacyclotetradecan-2-one,OETISESXIXCPAD-UHFFFAOYSA-N,O=C1CCCCCCCCCCCCN1,-2.626
B-2314,"benzenemethanol, 3,4,5-trichloro-",HZKGTRUEBFRMNO-UHFFFAOYSA-N,OCc1cc(Cl)c(Cl)c(Cl)c1,-3.0948
B-2315,iodine,PNDPGZBMCMUPRI-UHFFFAOYSA-N,II,-2.886
B-2316,8-quinazolinol,LNNRQIKKDKDFRV-UHFFFAOYSA-N,Oc1cccc2cncnc12,-2.0361
B-2317,butane-1-thiosulfinic acid s-butyl ester,XSHPYKKTJQSNFE-UHFFFAOYSA-N,CCCCS[S](=O)CCCC,-2.2886
B-2318,phenylethanolamine,ULSIYEODSMZIPX-UHFFFAOYSA-N,NCC(O)c1ccccc1,-0.4764
B-2319,"2,3-dichlorobutane",RMISVOPUIFJTEO-UHFFFAOYSA-N,CC(Cl)C(C)Cl,-2.3541
B-2320,"2-furancarboxamide, n-hydroxy-n-phenyl-",CCTHSALYFOIKCZ-UHFFFAOYSA-N,ON(C(=O)c1occc1)c2ccccc2,-3.194
B-2321,hydrogen fluoride,KRHYYFGTRYWZRS-UHFFFAOYSA-N,[H+].[F-],1.6988
B-2322,sulfuric acid,QAOWNCQODCNURD-UHFFFAOYSA-N,O[S](O)(=O)=O,1.0084
B-2323,"nicotinic acid, propyl ester",CLAOCVVWIKGTOP-UHFFFAOYSA-N,CCCOC(=O)c1cccnc1,-1.2403
B-2324,ronidazole,PQFRTXSWDXZRRS-UHFFFAOYSA-N,Cn1c(COC(N)=O)ncc1[N+]([O-])=O,-1.8433
B-2325,"dl-norleucine, n-acetyl-",JDMCEGLQFSOMQH-UHFFFAOYSA-N,CCCCC(NC(C)=O)C(O)=O,-0.6823
B-2327,crotoxyphos,XXXSILNSXNPGKG-ZHACJKMWSA-N,CO[P](=O)(OC)OC(/C)=C/C(=O)OC(C)c1ccccc1,-2.4973
B-2328,"1-naphthalenecarboxylic acid, 2-chloro-",HUNGHFUNVZTRKO-UHFFFAOYSA-N,OC(=O)c1c(Cl)ccc2ccccc12,-2.3152