ID,Name,InChIKey,SMILES,Solubility
A-3854,"4-hydroxy-2,5-dimethyl-2,3-dihydrofuran-3-one",INAXVXBDKKUCGI-UHFFFAOYSA-N,CC1OC(=C(O)C1=O)C,0.3906698962
A-3855,5-benzoyl-4-hydroxy-2-methoxybenzene-1-sulfonic acid,KJCLYACXIWMFCC-UHFFFAOYSA-M,[Na+].COc1cc(O)c(cc1[S]([O-])(=O)=O)C(=O)c2ccccc2,-0.022384851
A-3858,"2,2,4-trimethylpentane-1,3-diol",JCTXKRPTIMZBJT-UHFFFAOYSA-N,CC(C)C(O)C(C)(C)CO,-0.6667259262
A-3865,2-Ethylhexyl (2S)-2-hydroxypropanoate,FECDACOUYKFOOP-RGURZIINSA-N,CCCCC(CC)COC(=O)[C@H](C)O,-2.6735257097
A-3866,cyclopentanone,BGTOWKSIORTVQH-UHFFFAOYSA-N,O=C1CCCC1,0.5536775573
A-3867,N-methylmethanaminium chloride,IQDGSYLLQPDQDV-UHFFFAOYSA-N,[H+].[Cl-].CNC,1.5657185919
A-3868,hydrogen sulfide; manganese,TWJXYBSUGSKHPM-UHFFFAOYSA-N,S.[Mn],-4.1599117564
A-3869,methyl formate,TZIHFWKZFHZASV-UHFFFAOYSA-N,COC=O,0.6985937788
A-3870,"trisodium 8-hydroxypyrene-1,3,6-trisulfonate",KXXXUIKPSVVSAW-UHFFFAOYSA-K,[Na+].[Na+].[Na+].Oc1cc(c2ccc3c4c(ccc1c24)c(cc3[S]([O-])(=O)=O)[S]([O-])(=O)=O)[S]([O-])(=O)=O,-0.242535631
A-3872,"4-methyl-3a,4,7,7a-tetrahydro-2-benzofuran-1,3-dione",XPEKVUUBSDFMDR-UHFFFAOYSA-N,CC1C=CCC2C1C(=O)OC2=O,-0.7362684616
A-3873,N-isopropyl-2-methylacrylamide,YQIGLEFUZMIVHU-UHFFFAOYSA-N,CC(C)NC(=O)C(C)=C,-0.6201428843
A-3874,"disodium 2,2'-ethene-1,2-diylbis[5-({4-anilino-6-[(2-hydroxyethyl)amino]-1,3,5-triazin-2-yl}amino)benzenesulfonate]",HIMNALZNLAOESZ-YHPRVSEPSA-L,[Na+].[Na+].OCCNc1nc(Nc2ccccc2)nc(Nc3ccc(\C=C\c4ccc(Nc5nc(NCCO)nc(Nc6ccccc6)n5)cc4[S]([O-])(=O)=O)c(c3)[S]([O-])(=O)=O)n1,-1.4592143997
A-3875,2-(2-ethoxyethoxy)-2-methylpropane,NUNQKTCKURIZQX-UHFFFAOYSA-N,CCOCCOC(C)(C)C,-0.6879152253
A-3876,3-methoxybutyl acetate,QMYGFTJCQFEDST-UHFFFAOYSA-N,COC(C)CCOC(C)=O,-0.6877845282
A-3877,"Sulfuric acid, mono-C12-18-alkyl esters, sodium salts",SMECTXYFLVLAJE-UHFFFAOYSA-M,[Na+].CCCCCCCCCCCCCCCO[S]([O-])(=O)=O,-1.042005529
A-3878,carbamimidoylsulfinic acid,FYOWZTWVYZOZSI-UHFFFAOYSA-N,NC(=N)[S](O)=O,-0.5567928158
A-3880,tert-butyl 2-methylpropaneperoxoate,PFBLRDXPNUJYJM-UHFFFAOYSA-N,CC(C)C(=O)OOC(C)(C)C,-1.6070025668
A-3881,"(2,2-dimethoxyethyl)benzene",WNJSKZBEWNVKGU-UHFFFAOYSA-N,COC(Cc1ccccc1)OC,-1.6296186709
A-3882,"1,3,5-triazine-2,4,6-triamine phosphate",XFZRQAZGUOTJCS-UHFFFAOYSA-N,Nc1nc(N)nc(N)n1.O[P](O)(O)=O,-1.7594101934
A-3883,"2H,4H,4aH,5H,9bH-indeno[1,2-d][1,3]dioxine",CZSXBBWOROMVEW-UHFFFAOYSA-N,C1OCC2Cc3ccccc3C2O1,-1.6560932729
A-3884,"3-[(4-hydroxy-3-methoxyphenyl)methyl]pentane-2,4-dione",IFGDRUTWCITGHG-UHFFFAOYSA-N,COc1cc(CC(C(C)=O)C(C)=O)ccc1O,-1.7863659491
A-3889,"(2R,3R,4R,5S)-2-(hydroxymethyl)piperidine-3,4,5-triol",LXBIFEVIBLOUGU-JGWLITMVSA-N,OC[C@H]1NC[C@H](O)[C@@H](O)[C@@H]1O,0.4043520428
A-3890,diethyl chloromalonate,WLWCQKMQYZFTDR-UHFFFAOYSA-N,CCOC(=O)C(Cl)C(=O)OCC,-1.7209723549
A-3891,sodium 6-amino-4-hydroxy-5-[(E)-2-[2-(trifluoromethyl)phenyl]diazen-1-yl]naphthalene-2-sulfonate,GVCNKWIFAPJNDM-UHFFFAOYSA-M,[Na+].[O-][S](=O)(=O)C1=CC(=O)C2=C(NNc3ccccc3C(F)(F)F)C(=N)C=CC2=C1,-2.0686300615
A-3892,2-(2-{2-[(2-methylprop-2-enoyl)oxy]ethoxy}ethoxy)ethyl 2-methylprop-2-enoate,HWSSEYVMGDIFMH-UHFFFAOYSA-N,CC(=C)C(=O)OCCOCCOCCOC(=O)C(C)=C,-1.9005552518
A-3893,4-[(4-amino-3-methylcyclohexyl)methyl]-2-methylcyclohexan-1-amine,IGSBHTZEJMPDSZ-UHFFFAOYSA-N,CC1CC(CCC1N)CC2CCC(N)C(C)C2,-1.8210383613
A-3895,"2,5-dimethylphenol",NKTOLZVEWDHZMU-UHFFFAOYSA-N,Cc1ccc(C)c(O)c1,-1.5375827569
A-3896,"{[(2R,3S,4R,5R)-5-(6-amino-9H-purin-9-yl)-3,4-dihydroxyoxolan-2-yl]methoxy}phosphonic acid",UDMBCSSLTHHNCD-UHFFFAOYSA-N,Nc1ncnc2n(cnc12)C3OC(CO[P](O)(O)=O)C(O)C3O,-1.9953026194
A-3897,"1,1,2-trichloroethane",UBOXGVDOUJQMTN-UHFFFAOYSA-N,ClCC(Cl)Cl,-1.5811040628
A-3898,"2,3,5-trimethylbenzene-1,4-diol",AUFZRCJENRSRLY-UHFFFAOYSA-N,Cc1cc(O)c(C)c(C)c1O,-1.6383266335
A-3900,[2-(4-aminobenzenesulfonyl)ethoxy]sulfonic acid,IALORYHODRVWKZ-UHFFFAOYSA-N,Nc1ccc(cc1)[S](=O)(=O)CCO[S](O)(=O)=O,-1.9051186702
A-3903,"tris(prop-2-en-1-yl)-1,3,5-triazinane-2,4,6-trione",KOMNUTZXSVSERR-UHFFFAOYSA-N,C=CCN1C(=O)N(CC=C)C(=O)N(CC=C)C1=O,-1.8526019693
A-3904,methyl 3-aminopyrazine-2-carboxylate,INCSQLZZXBPATR-UHFFFAOYSA-N,COC(=O)c1nccnc1N,-1.6422660517
A-3905,"1,3,5-triazine-2,4,6-triamine",JDSHMPZPIAZGSV-UHFFFAOYSA-N,Nc1nc(N)nc(N)n1,-1.5592150485
A-3907,1-nitroguanidine,IDCPFAYURAQKDZ-UHFFFAOYSA-N,NC(N)=N[N+]([O-])=O,-1.4858424644
A-3908,2-(trifluoromethyl)aniline,VBLXCTYLWZJBKA-UHFFFAOYSA-N,Nc1ccccc1C(F)(F)F,-1.6756867087
A-3909,1-[4-(4-hydroxyphenyl)piperazin-1-yl]ethan-1-one,AGVNLFCRZULMKK-UHFFFAOYSA-N,CC(=O)N1CCN(CC1)c2ccc(O)cc2,-1.817914488
A-3910,"4-(oxiran-2-ylmethoxy)-N,N-bis(oxiran-2-ylmethyl)aniline",AHIPJALLQVEEQF-UHFFFAOYSA-N,C1OC1COc2ccc(cc2)N(CC3CO3)CC4CO4,-1.9192347247
A-3911,1-aminoguanidine; carbonic acid,OTXHZHQQWQTQMW-UHFFFAOYSA-N,NN=C(N)N.OC(O)=O,-1.6153792849
A-3914,methyl(naphthalen-1-ylmethyl)amine,MQRIUFVBEVFILS-UHFFFAOYSA-N,CNCc1cccc2ccccc12,-1.7150988877
A-3915,N-(2-methoxyphenyl)-3-oxobutanamide,KYYRTDXOHQYZPO-UHFFFAOYSA-N,COc1ccccc1NC(=O)CC(C)=O,-1.8059055211
A-3919,2-(propan-2-yloxy)propane,ZAFNJMIOTHYJRJ-UHFFFAOYSA-N,CC(C)OC(C)C,-1.5165927583
A-3921,2-bromopropane,NAMYKGVDVNBCFQ-UHFFFAOYSA-N,CC(C)Br,-1.598518701
A-3922,4-methylbenzene-1-sulfonamide,LMYRWZFENFIFIT-UHFFFAOYSA-N,Cc1ccc(cc1)[S](N)(=O)=O,-1.7421953353
A-3924,(ethylsulfanyl)ethane,LJSQFQKUNVCTIA-UHFFFAOYSA-N,CCSCC,-1.4680248268
A-3926,6-methylhept-5-en-2-one,UHEPJGULSIKKTP-UHFFFAOYSA-N,CC(C)=CCCC(C)=O,-1.6210489706
A-3929,1-[2-(2-butoxyethoxy)ethoxy]butane,KZVBBTZJMSWGTK-UHFFFAOYSA-N,CCCCOCCOCCOCCCC,-1.862006084
A-3931,2-isopropenyl-5-methylcyclohexanol,ZYTMANIQRDEHIO-UHFFFAOYSA-N,CC1CCC(C(O)C1)C(C)=C,-1.7111123645
A-3932,2-methoxy-5-methylaniline,WXWCDTXEKCVRRO-UHFFFAOYSA-N,COc1ccc(C)cc1N,-1.6601758755
A-3933,"2-phenyl-4,5-dihydro-1H-imidazole; benzene-1,2,4,5-tetracarboxylic acid",TZBVXASHYYFGHZ-UHFFFAOYSA-N,OC(=O)c1cc(C(O)=O)c(cc1C(O)=O)C(O)=O.C2CN=C(N2)c3ccccc3,-2.1253109845
A-3934,4-chloroaniline,QSNSCYSYFYORTR-UHFFFAOYSA-N,Nc1ccc(Cl)cc1,-1.628640918
A-3935,5-methylheptan-3-one,PSBKJPTZCVYXSD-UHFFFAOYSA-N,CCC(C)CC(=O)CC,-1.630817582
A-3937,aluminum tris(4-oxopent-2-en-2-olate),KILURZWTCGSYRE-UHFFFAOYSA-K,[Al+3].CC([O-])=CC(C)=O.CC([O-])=CC(C)=O.CC([O-])=CC(C)=O,-2.0338377464
A-3939,chlorodifluoromethane,VOPWNXZWBYDODV-UHFFFAOYSA-N,FC(F)Cl,-1.4597341592
A-3941,"2-[[4,5-dihydro-3-methyl-5-oxo-1-[4-[[2-(sulphooxy)ethyl]sulphonyl]phenyl]-1H-pyrazol-4-yl]azo]naphthalene-1,5-disulphonic acid, potassium sodium salt",GARUHJAOVJVADA-UHFFFAOYSA-L,[Na+].[K+].CC1=NN(C(O)C1N=Nc2ccc3c(cccc3[S]([O-])(=O)=O)c2[S](O)(=O)=O)c4ccc(cc4)[S](=O)(=O)CCO[S]([O-])(=O)=O,-0.3928398265
A-3943,"but-2-yne-1,4-diol",DLDJFQGPPSQZKI-UHFFFAOYSA-N,OCC#CCO,1.5363390032
A-3944,"trisodium 8-{[(2E)-4-chloro-6-[ethyl(phenyl)amino]-1,2-dihydro-1,3,5-triazin-2-ylidene]amino}-2-[(E)-2-(1-sulfonaphthalen-2-yl)diazen-1-yl]-3,6-disulfonatonaphthalen-1-olate",YTFISNAZHFSCHA-AWMFZBAVSA-K,[Na+].[Na+].[Na+].CCN(c1ccccc1)c2nc(Cl)nc(Nc3cc(cc4C=C(\C(=N/Nc5ccc6ccccc6c5[S]([O-])(=O)=O)C(=O)c34)[S]([O-])(=O)=O)[S]([O-])(=O)=O)n2,-0.4592355493
A-3949,"sodium 3-[2-(1,5-dioxonaphthalen-2-yl)hydrazinyl]-4-hydroxybenzenesulfonate",GJJYQFJLFUEXMR-UHFFFAOYSA-M,[Na+].Oc1ccc(cc1NNC2=CC=C3C(=O)C=CC=C3C2=O)[S]([O-])(=O)=O,-0.9011960035
A-3950,"N,N-bis(carboxymethyl)-L-glutamic acid",VCVKIIDXVWEWSZ-UHFFFAOYSA-N,OC(=O)CCC(N(CC(O)=O)CC(O)=O)C(O)=O,0.0436038039
A-3954,isopropenyl acetate,HETCEOQFVDFGSY-UHFFFAOYSA-N,CC(=C)OC(C)=O,-0.5277513782
A-3955,"1,2,3,6-tetrahydrophthalic anhydride",KMOUUZVZFBCRAM-UHFFFAOYSA-N,O=C1OC(=O)C2CC=CCC12,-0.7139217719
A-3956,"3,5-dimethyl-1H-pyrazole",SDXAWLJRERMRKF-UHFFFAOYSA-N,Cc1[nH]nc(C)c1,-0.5204744976
A-3961,dipotassium 2-dodecanamidoacetate 2-tetradecanamidoacetate,AFUMULMCCJZCMZ-UHFFFAOYSA-L,[K+].[K+].CCCCCCCCCCCCCC(=O)NCC([O-])=O.CCCCCCCCCCCC(=O)NCC([O-])=O,-0.3429717
A-3964,"(8R,9S,10R,14S)-13-ethyl-1,2,6,7,8,9,10,11,12,14,15,16-dodecahydrocyclopenta[a]phenanthrene-3,17-dione",SBLHOJQRZNGHLQ-YLVOMZDISA-N,CCC12CC[C@H]3[C@@H](CCC4=CC(=O)CC[C@H]34)[C@@H]1CCC2=O,-3.7327198893
A-3965,2-amino-3-(phosphonooxy)propanoic acid,BZQFBWGGLXLEPQ-REOHCLBHSA-N,N[C@@H](CO[P](O)(O)=O)C(O)=O,-0.8149408723
A-3967,"Benzenesulfonic acid, mono-C11-13-branched alkyl derivs., sodium salts",HLZPFMSGWIVXAK-UHFFFAOYSA-M,[Na+].CCCCC(CC)CCCCCc1ccc(cc1)[S]([O-])(=O)=O,-0.0969056512
A-3968,"hexasodium 2-({4-[bis(2-hydroxyethyl)amino]-6-({4-[(E)-2-[4-({4-[bis(2-hydroxyethyl)amino]-6-[(2,5-disulfonatophenyl)amino]-1,3,5-triazin-2-yl}amino)-2-sulfonatophenyl]ethenyl]-3-sulfonatophenyl}amino)-1,3,5-triazin-2-yl}amino)benzene-1,4-disulfonate",ZECOZQHKQDLCBT-IRTUOLCXSA-H,[Na+].[Na+].[Na+].[Na+].[Na+].[Na+].OCCN(CCO)c1nc(Nc2ccc(\C=C\c3ccc(Nc4nc(Nc5cc(ccc5[S]([O-])(=O)=O)[S]([O-])(=O)=O)nc(n4)N(CCO)CCO)cc3[S]([O-])(=O)=O)c(c2)[S]([O-])(=O)=O)nc(Nc6cc(ccc6[S]([O-])(=O)=O)[S]([O-])(=O)=O)n1,-0.6924056004
A-3969,dicaesium(1+) ion carbonate,FJDQFPXHSGXQBY-UHFFFAOYSA-L,[Cs+].[Cs+].[O-]C([O-])=O,0.9300687552
A-3975,pivalic acid,IUGYQRQAERSCNH-UHFFFAOYSA-N,CC(C)(C)C(O)=O,-0.5635618856
A-3976,"1-(2-hydroxyethyl)-2,2,6,6-tetramethylpiperidin-4-ol",STEYNUVPFMIUOY-UHFFFAOYSA-N,CC1(C)CC(O)CC(C)(C)N1CCO,-0.8598205529
A-3977,diethyl(prop-2-yn-1-yl)amine,JZJXKEWVUBVOEH-UHFFFAOYSA-N,CCN(CC)CC#C,-0.6020131225
A-3978,cobalt(2+) hydrogen citrate,FDTVUHQHHXTXLW-UHFFFAOYSA-L,[Co++].OC(=O)CC(O)(CC([O-])=O)C([O-])=O,-0.954573972
A-3979,Cobaltous citrate,IEXXNGVQCLMTKU-UHFFFAOYSA-H,[Co++].[Co++].[Co++].OC(CC([O-])=O)(CC([O-])=O)C([O-])=O.OC(CC([O-])=O)(CC([O-])=O)C([O-])=O,-1.3025954999
A-3985,barium(2+) ion dichloride,PWHCIQQGOQTFAE-UHFFFAOYSA-L,O.O.[Cl-].[Cl-].[Ba++],0.0418928153
A-3986,"2-bromo-2-nitropropane-1,3-diol",LVDKZNITIUWNER-UHFFFAOYSA-N,OCC(Br)(CO)[N+]([O-])=O,0.1271308568
A-3987,copper(+1) cation sulfide,AQMRBJNRFUQADD-UHFFFAOYSA-N,[SH--].[Cu+].[Cu+],-4.2045730411
A-3988,2-methyl-1H-imidazole,LXBGSDVWAMZHDD-UHFFFAOYSA-N,Cc1[nH]ccn1,0.5121363665
A-3989,Sodium trimetaphosphate,UGTZMIPZNRIWHX-UHFFFAOYSA-K,[Na+].[Na+].[Na+].[O-][P]1(=O)O[P]([O-])(=O)O[P]([O-])(=O)O1,-0.062309467
A-3991,oxoselane oxide,JPJALAQPGMAKDF-UHFFFAOYSA-N,O=[Se]=O,1.3647745033
A-3992,"1,3-dioxepane",CZLMRJZAHXYRIX-UHFFFAOYSA-N,C1CCOCOC1,0.4107896597
A-3994,"pentasodium 4-amino-6-[(E)-2-{5-[(4-amino-6-chloro-1,3,5-triazin-2-yl)amino]-2-sulfonatophenyl}diazen-1-yl]-3-[(E)-2-(2,5-disulfonatophenyl)diazen-1-yl]-5-hydroxynaphthalene-2,7-disulfonate",RAZBZSZIUMDHTB-WZTFRFCZSA-I,[Na+].[Na+].[Na+].[Na+].[Na+].Nc1nc(Cl)nc(Nc2ccc(c(N\N=C/3C(=O)c4c(N)c(N=Nc5cc(ccc5[S]([O-])(=O)=O)[S]([O-])(=O)=O)c(cc4C=C3[S]([O-])(=O)=O)[S]([O-])(=O)=O)c2)[S]([O-])(=O)=O)n1,-0.5908005839
A-3996,4-methylpent-3-en-2-one,SHOJXDKTYKFBRD-UHFFFAOYSA-N,CC(C)=CC(C)=O,-0.560826234
A-3997,"disodium 3-[(E)-2-(5-chloro-2-hydroxyphenyl)diazen-1-yl]-4,5-dihydroxynaphthalene-2,7-disulfonate",RAIRBURLMTXYPH-WTBAQZMLSA-L,[Na+].[Na+].Oc1ccc(Cl)cc1N\N=C/2C(=O)c3c(O)cc(cc3C=C2[S]([O-])(=O)=O)[S]([O-])(=O)=O,-1.2898086582
A-3998,C.i.Basic Violet 11,UOKMUTMXUMSRKM-UHFFFAOYSA-M,[Cl-].CCOC(=O)c1ccccc1c2c3ccc(cc3[o+]c4cc(ccc24)N(CC)CC)N(CC)CC,-1.2801897062
A-3999,4-chlorophenol,WXNZTHHGJRFXKQ-UHFFFAOYSA-N,Oc1ccc(Cl)cc1,-0.6876597172
A-4000,methacrylonitrile,GYCMBHHDWRMZGG-UHFFFAOYSA-N,CC(=C)C#N,-0.4067085166
A-4001,2-methylphenol,QWVGKYWNOKOFNN-UHFFFAOYSA-N,Cc1ccccc1O,-0.6190130173
A-4004,dilithium(1+) ion sulfate,INHCSSUBVCNVSK-UHFFFAOYSA-L,[Li+].[Li+].[O-][S]([O-])(=O)=O,0.3921242805
A-4006,dimethyl[2-[(2-methyl-1-oxoallyl)oxy]ethyl](3-sulphopropyl)ammonium hydroxide,BCAIDFOKQCVACE-UHFFFAOYSA-N,CC(=C)C(=O)OCC[N+](C)(C)CCC[S]([O-])(=O)=O,0.9627399696
A-4009,"disodium 2-{4-[(2E)-2-cyano-3-{4-[methyl(2-sulfonatoethyl)amino]phenyl}prop-2-enamido]phenyl}-6-methyl-1,3-benzothiazole-7-sulfonate",RXTSUBROMXGEJZ-ZAWKPCBGSA-L,[Na+].[Na+].CN(CC[S]([O-])(=O)=O)c1ccc(cc1)/C=C(C#N)/C(=O)Nc2ccc(cc2)c3sc4c(ccc(C)c4[S]([O-])(=O)=O)n3,-0.415949942
A-4017,2-phenoxyethan-1-ol,QCDWFXQBSFUVSP-UHFFFAOYSA-N,OCCOc1ccccc1,-0.742461176
A-4020,potassium hydrogen oxalate,JMTCDHVHZSGGJA-UHFFFAOYSA-M,[K+].OC(=O)C([O-])=O,-0.7096904801
A-4023,"7-acetamido-4-hydroxy-3-[[4-[[2-(sulphooxy)ethyl]sulphonyl]phenyl]azo]naphthalene-2-sulphonic acid, sodium salt",RVERFAMJEQKFQK-HHUIZHIGSA-L,[Na+].[Na+].CC(=O)Nc1ccc2C(=O)C(=N/Nc3ccc(cc3)[S](=O)(=O)CCO[S]([O-])(=O)=O)\C(=Cc2c1)[S]([O-])(=O)=O,-0.3963934895
A-4024,N'-acetylacetohydrazide,ZLHNYIHIHQEHJQ-UHFFFAOYSA-N,CC(=O)NNC(C)=O,0.3286681761
A-4025,ethyl 2-cyclohexylpropanoate,PZUDDXJZNSJESK-UHFFFAOYSA-N,CCOC(=O)C(C)C1CCCCC1,-3.3274567494
A-4026,calcium bis((2S)-5-oxopyrrolidine-2-carboxylate),DPKBGUHEYKGWSC-UHFFFAOYSA-M,[Ca++].[O-]C(=O)C1CCC(=O)N1,0.1651478476
A-4028,disodium oxybis[methylbenzenesulphonate],UGVJAWDVDTXCQA-UHFFFAOYSA-L,[Na+].[Na+].Cc1cc(Oc2cc(C)cc(c2)[S]([O-])(=O)=O)cc(c1)[S]([O-])(=O)=O,-0.2207961954
A-4029,2-(dimethylamino)ethyl acrylate,DPBJAVGHACCNRL-UHFFFAOYSA-N,CN(C)CCOC(=O)C=C,0.2243106848
A-4030,"4-methyl-1,3-dioxolan-2-one",RUOJZAUFBMNUDX-UHFFFAOYSA-N,CC1COC(=O)O1,0.371232292
A-4031,(4-methoxyphenyl)methanol,MSHFRERJPWKJFX-UHFFFAOYSA-N,COc1ccc(CO)cc1,-0.7447271456
A-4032,aniline; formaldehyde,OUCPJZWNFRYRBI-UHFFFAOYSA-N,Nc1ccccc1.C=O,-2.0040922179
A-4034,1-ethynylcyclohexanol,QYLFHLNFIHBCPR-UHFFFAOYSA-N,OC1(CCCCC1)C#C,-0.7048960629
A-4036,"1,3-dioxo-1,3-dihydro-2-benzofuran-5-carboxylic acid",SRPWOOOHEPICQU-UHFFFAOYSA-N,OC(=O)c1ccc2C(=O)OC(=O)c2c1,-0.8961963146
A-4039,caesium(1+) ion nitrate,TVFDJXOCXUVLDH-UHFFFAOYSA-N,[Cs],0.255764198
A-4040,"3-hydroxy-2,2-dimethylpropyl 3-hydroxy-2,2-dimethylpropanoate",SZCWBURCISJFEZ-UHFFFAOYSA-N,CC(C)(CO)COC(=O)C(C)(C)CO,0.0682018165
A-4041,"copper(2+) ion tetrasodium 8-[(4-amino-6-chloro-1,3,5-triazin-2-yl)amino]-2-[(E)-2-(1-oxido-4,8-disulfonatonaphthalen-2-yl)diazen-1-yl]-3,6-disulfonatonaphthalen-1-olate",BQWFGICULAHUSM-UHFFFAOYSA-H,[Na+].[Na+].[Na+].[Na+].[Cu++].Nc1nc(Cl)nc(Nc2cc(cc3cc(c(N=Nc4cc(c5cccc(c5c4[O-])[S]([O-])(=O)=O)[S]([O-])(=O)=O)c([O-])c23)[S]([O-])(=O)=O)[S]([O-])(=O)=O)n1,-0.5907814419
A-4043,"1,3-diaminourea",XEVRDFDBXJMZFG-UHFFFAOYSA-N,NNC(=O)NN,0.4145585536
A-4044,pentan-2-ol,JYVLIDXNZAXMDK-UHFFFAOYSA-N,CCCC(C)O,-0.2541408245
A-4045,"sodium 1-(3,4-dihydro-6-methyl-2,4-dioxo-2H-pyran-3-ylidene)ethanolate",YIOCQGHBBNGBND-UHFFFAOYSA-N,[Na+].CC(=O)[C-]1C(=O)OC(=CC1=O)C,0.0845613317
A-4047,3-methylphenol,RLSSMJSEOOYNOY-UHFFFAOYSA-N,Cc1cccc(O)c1,-0.662918503
A-4049,methanethiol,LSDPWZHWYPCBBB-UHFFFAOYSA-N,CS,-0.3148794359
A-4052,2-propyloxirane,SYURNNNQIFDVCA-UHFFFAOYSA-N,CCCC1CO1,-0.57344678
A-4055,potassium difluorodihydroxyboranuide,VRMTUNITGONABS-UHFFFAOYSA-N,[K+].O[B-](O)(F)F,-0.724347118
A-4056,sodium 5-[[4-acetamido-2-(trifluoromethyl)phenyl]azo]-6-amino-4-hydroxynaphthalene-2-sulphonate,OESZMLMGVFCVEX-UHFFFAOYSA-M,[Na+].CC(=O)Nc1ccc(NNC2=C3C(=O)C=C(C=C3C=CC2=N)[S]([O-])(=O)=O)c(c1)C(F)(F)F,-1.3288181975
A-4061,benzoate; diaminomethylideneazanium,KNBXROBXQPEXAM-UHFFFAOYSA-M,N[C+](N)N.[O-]C(=O)c1ccccc1,0.0050162556
A-4063,"disodium bis[(oxoboranyl)oxy]bicyclo[5.5.1]hexaboroxane-3,5-bis(olate)",RHSGYAYYVYMXIF-UHFFFAOYSA-N,O.O.O.O.[Na+].[Na+].[O-]B([O-])[O-].[O-]B([O-])[O-].[O-]B([O-])[O-].[O-]B([O-])[O-].[O-]B([O-])[O-].[O-]B([O-])[O-].[O-]B([O-])[O-].[O-]B([O-])[O-],-0.4201864202
A-4064,sodium 2-phenoxyacetate,WPTJBFNYRRZIDZ-UHFFFAOYSA-M,[Na+].[O-]C(=O)COc1ccccc1,0.1085957051
A-4066,"sodium 4-{[4-(diethylamino)phenyl][4-(diethyliminio)cyclohexa-2,5-dien-1-ylidene]methyl}benzene-1,3-disulfonate",SJEYSFABYSGQBG-UHFFFAOYSA-M,[Na+].CCN(CC)c1ccc(cc1)[C+](c2ccc(cc2)N(CC)CC)c3ccc(cc3[S]([O-])(=O)=O)[S]([O-])(=O)=O,-0.4066892685
A-4070,2-chlorophenol,ISPYQTSUDJAMAB-UHFFFAOYSA-N,Oc1ccccc1Cl,-0.7538392019
A-4073,"4-bromo-1,2-dichlorobenzene",CFPZDVAZISWERM-UHFFFAOYSA-N,Clc1ccc(Br)cc1Cl,-1.0114935501
A-4074,butyldimethylamine,DJEQZVQFEPKLOY-UHFFFAOYSA-O,CCCC[NH+](C)C,-0.6670324644
A-4075,tetrasodium 4-hydroxy-7-[({5-hydroxy-7-sulfonato-6-[(E)-2-(6-sulfonatonaphthalen-2-yl)diazen-1-yl]naphthalen-2-yl}carbamoyl)amino]-3-[(E)-2-(6-sulfonatonaphthalen-2-yl)diazen-1-yl]naphthalene-2-sulfonate,NBJHNXDETPQRBX-VHSPQIIZSA-J,[Na+].[Na+].[Na+].[Na+].[O-][S](=O)(=O)c1cccc2cc(NNC3=CC(=O)C4=CC(C=CC4=C3[S]([O-])(=O)=O)=NC(=O)Nc5ccc6C(=O)C(=N/Nc7ccc8cccc(c8c7)[S]([O-])(=O)=O)/C(=Cc6c5)[S]([O-])(=O)=O)ccc12,-0.6872171371
A-4076,2-[1-(aminomethyl)cyclohexyl]acetic acid hydrochloride,XBUDZAQEMFGLEU-UHFFFAOYSA-N,[H+].[Cl-].NCC1(CCCCC1)CC(O)=O,0.0190211463
A-4078,guanidine hydrochloride,PJJJBBJSCAKJQF-UHFFFAOYSA-N,[H+].[Cl-].NC(N)=N,1.3522850439
A-4082,"ethane-1,2-diyl bis(3-oxobutanoate)",SJCUPJATWUWGAV-UHFFFAOYSA-N,CC(=O)CC(=O)OCCOC(=O)CC(C)=O,-0.0337559003
A-4083,sodium 4-aminobenzene-1-sulfonate,KSVSZLXDULFGDQ-UHFFFAOYSA-M,[Na+].Nc1ccc(cc1)[S]([O-])(=O)=O,0.0379554154
A-4084,"1,3,5-trioxane",BGJSXRVXTHVRSN-UHFFFAOYSA-N,C1OCOCO1,0.3717171259
A-4086,manganese(2+) ion hydrogen phosphate,CPSYWNLKRDURMG-UHFFFAOYSA-L,[Mn++].O[P]([O-])([O-])=O,0.1455471695
A-4087,zinc(2+) ion sulfate,RNZCSKGULNFAMC-UHFFFAOYSA-L,O.[Zn++].[O-][S]([O-])(=O)=O,0.0702954323
A-4088,disodium oxosilanebis(olate),NTHWMYGWWRZVTN-UHFFFAOYSA-N,[Na+].[Na+].[O-][Si]([O-])=O,0.2356352551
A-4091,"sodium 2-{2-[(2,6-dichlorophenyl)amino]phenyl}acetate",KPHWPUGNDIVLNH-UHFFFAOYSA-M,[Na+].[O-]C(=O)Cc1ccccc1Nc2c(Cl)cccc2Cl,-1.1742318477
A-4092,"disodium 3,3'-[[6-[bis(2-hydroxyethyl)amino]-1,3,5-triazine-2,4-diyl]bis[imino(3-methoxy-4,1-phenylene)azo]]bis[benzenesulphonate]",NUTZBMSWUMFSIW-UHFFFAOYSA-L,[Na+].[Na+].COc1cc(ccc1Nc2nc(Nc3ccc(cc3OC)N=Nc4cccc(c4)[S]([O-])(=O)=O)nc(n2)N(CCO)CCO)N=Nc5cccc(c5)[S]([O-])(=O)=O,-1.6008155248
A-4093,"2-ethyl-2-{[2-ethyl-3-hydroxy-2-(hydroxymethyl)propoxy]methyl}propane-1,3-diol",WMYINDVYGQKYMI-UHFFFAOYSA-N,CCC(CO)(CO)COCC(CC)(CO)CO,-1.076302279
A-4094,methyl 3-sulfanylpropanoate,LDTLDBDUBGAEDT-UHFFFAOYSA-N,COC(=O)CCS,-0.7575876083
A-4096,sodium 4-[(4-methyl-3-nitrobenzoyl)amino]benzenesulfonate,YLDIMJOASVRWAO-UHFFFAOYSA-M,[Na+].Cc1ccc(cc1[N+]([O-])=O)C(=O)Nc2ccc(cc2)[S]([O-])(=O)=O,-1.232035998
A-4097,(4-methyl-1H-imidazol-5-yl)methanol,AXJZCJSXNZZMDU-UHFFFAOYSA-N,Cc1[nH]cnc1CO,0.2683337666
A-4099,potassium dihydrogenorthophosphate,GNSKLFRGEWLPPA-UHFFFAOYSA-M,[K+].O[P](O)([O-])=O,0.1842562687
A-4100,prop-2-enal,HGINCPLSRVDWNT-UHFFFAOYSA-N,C=CC=O,0.5693792548
A-4102,cerium(+3) cation; hydrogen sulfate; sulfate; tetrahydrate,ZBNJQJDKRZKDSV-UHFFFAOYSA-K,O.O.O.O.[Ce+3].O[S]([O-])(=O)=O.[O-][S]([O-])(=O)=O,-0.2918169735
A-4103,azane; molybdenum; tetracosahydrate,QGAVSDVURUSLQK-UHFFFAOYSA-N,N.N.N.N.N.N.O.O.O.O.O.O.O.O.O.O.O.O.O.O.O.O.O.O.O.O.O.O.O.O.[Mo].[Mo].[Mo].[Mo].[Mo].[Mo].[Mo],-0.7664726235
A-4104,ammonium perchlorate,HHEFNVCDPLQQTP-UHFFFAOYSA-N,[NH4+].[O-][Cl](=O)(=O)=O,0.2436628358
A-4105,"Cuprate(6-), [2-[[[[3-[[4-chloro-6-[[4-[[4-chloro-6-[(3-sulfophenyl)amino]-1,3,5-triazin-2-yl]amino]-2,5-disulfophenyl]amino]-1,3,5-triazin-2-yl]amino]-2-hydroxy-5-sulfophenyl]azo]phenylmethyl]azo]-5-sulfobenzoato(8-)]-, pentasodium hydrogen, (SP-4-3)-",NKKZYKFZYINUQZ-UHFFFAOYSA-G,[Na+].[Na+].[Na+].[Na+].[Na+].[Cu++].[O-]C(=O)c1cc(ccc1NNC(=N/Nc2cc(cc([N-]c3nc(Cl)nc(n3)N=C4C=C(C(C=C4[S]([O-])(=O)=O)=Nc5nc(Cl)nc(Nc6cccc(c6)[S]([O-])(=O)=O)n5)[S]([O-])(=O)=O)c2[O-])[S]([O-])(=O)=O)\c7ccccc7)[S]([O-])(=O)=O.[H+],-0.8254112341
A-4106,2-methylprop-2-enamide,FQPSGWSUVKBHSU-UHFFFAOYSA-N,CC(=C)C(N)=O,0.3753911904
A-4107,"hexasodium 2-{[4-(diethylamino)-6-({4-[(E)-2-(4-{[4-(diethylamino)-6-[(2,5-disulfonatophenyl)amino]-1,3,5-triazin-2-yl]amino}-2-sulfonatophenyl)ethenyl]-3-sulfonatophenyl}amino)-1,3,5-triazin-2-yl]amino}benzene-1,4-disulfonate",KMPSLWWDIJFERN-PTNBLCRGSA-H,[Na+].[Na+].[Na+].[Na+].[Na+].[Na+].CCN(CC)c1nc(Nc2ccc(\C=C\c3ccc(Nc4nc(Nc5cc(ccc5[S]([O-])(=O)=O)[S]([O-])(=O)=O)nc(n4)N(CC)CC)cc3[S]([O-])(=O)=O)c(c2)[S]([O-])(=O)=O)nc(Nc6cc(ccc6[S]([O-])(=O)=O)[S]([O-])(=O)=O)n1,-0.8122490226
A-4108,2-(methylamino)-1-phenylpropan-1-ol hydrochloride,BALXUFOVQVENIU-GNAZCLTHSA-N,[Cl-].CN[C@@H](C)[C@H](O)c1ccccc1.[H+],-0.003669443
A-4110,sodium 3-nitrobenzene-1-sulfonate,LJRGBERXYNQPJI-UHFFFAOYSA-M,[Na+].[O-][N+](=O)c1cccc(c1)[S]([O-])(=O)=O,-0.0514554578