ID,Name,InChIKey,SMILES,Solubility
A-2566,"O,O,O-tris(4-nitrophenyl) thiophosphate",DMRUHNJUTAJPSU-UHFFFAOYSA-N,[O-][N+](=O)c1ccc(O[P](=S)(Oc2ccc(cc2)[N+]([O-])=O)Oc3ccc(cc3)[N+]([O-])=O)cc1,-5.6788341975
A-2567,barium(2+) ion 4-[(E)-2-(5-chloro-4-methyl-2-sulfonatophenyl)diazen-1-yl]-3-hydroxynaphthalene-2-carboxylate,TTXAKIMEQNUACJ-JEBHESKQSA-L,[Ba++].Cc1cc(c(N\N=C/2C(=O)C(=Cc3ccccc23)C([O-])=O)cc1Cl)[S]([O-])(=O)=O,-5.7451856944
A-2568,barium(2+) ion bis(2-[(E)-2-(2-hydroxynaphthalen-1-yl)diazen-1-yl]naphthalene-1-sulfonate),MMXGUEISHWEPDM-JBLAVHSWSA-L,[Ba++].[O-][S](=O)(=O)c1c(N\N=C\2C(=O)C=Cc3ccccc23)ccc4ccccc14.[O-][S](=O)(=O)c5c(N\N=C\6C(=O)C=Cc7ccccc67)ccc8ccccc58,-5.9504281438
A-2569,bis(11-methyldodecyl) phthalate,BCSGAWBQJHXXSE-UHFFFAOYSA-N,CC(C)CCCCCCCCCCOC(=O)c1ccccc1C(=O)OCCCCCCCCCCC(C)C,-5.7249587317
A-2570,calcium bis[2-[(2-hydroxynaphthyl)azo]naphthalenesulphonate],AKLXUSFMCRHRNU-JBLAVHSWSA-L,[Ca++].[O-][S](=O)(=O)c1c(N\N=C\2C(=O)C=Cc3ccccc23)ccc4ccccc14.[O-][S](=O)(=O)c5c(N\N=C\6C(=O)C=Cc7ccccc67)ccc8ccccc58,-5.9003015698
A-2571,diindium trioxide,PJXISJQVUVHSOJ-UHFFFAOYSA-N,[O--].[O--].[O--].[In+3].[In+3],-5.4434710859
A-2572,diisotridecyl adipate,WPUKZOKYKHYASK-UHFFFAOYSA-N,CC(C)CCCCCCCCCCOC(=O)CCCCC(=O)OCCCCCCCCCCC(C)C,-5.7082882968
A-2573,docosan-1-ol,NOPFSRXAKWQILS-UHFFFAOYSA-N,CCCCCCCCCCCCCCCCCCCCCCO,-5.5140281479
A-2574,dodecyl 3-{[3-(dodecyloxy)-3-oxopropyl]sulfanyl}propanoate,GHKOFFNLGXMVNJ-UHFFFAOYSA-N,CCCCCCCCCCCCOC(=O)CCSCCC(=O)OCCCCCCCCCCCC,-5.7116866218
A-2575,ethyl 4-[[(methylphenylamino)methylene]amino]benzoate,GNGYPJUKIKDJQT-UHFFFAOYSA-N,CCOC(=O)c1ccc(cc1)N=CN(C)c2ccccc2,-5.4507770249
A-2577,hexadecyl hexadecyloxy dicarbonate,QWVBGCWRHHXMRM-UHFFFAOYSA-N,CCCCCCCCCCCCCCCCOC(=O)OOC(=O)OCCCCCCCCCCCCCCCC,-5.7565570001
A-2578,hexadecyl(trimethoxy)silane,RSKGMYDENCAJEN-UHFFFAOYSA-N,CCCCCCCCCCCCCCCC[Si](OC)(OC)OC,-5.5398636413
A-2579,hexanal; pentanal; propanedial,BJBMXVQYJNODIZ-UHFFFAOYSA-N,CCCCCC=O.CCCCC=O.O=CCC=O,-5.4122219139
A-2580,hydrate iron potassium,UMPKMCDVBZFQOK-UHFFFAOYSA-N,[O--].[O--].[K+].[Fe+3],-5.1036019152
A-2581,hydrate lithium potassium titanium,UFWQXTAKIFGGMA-UHFFFAOYSA-N,[Li].O.[K].[Ti],-5.0489115819
A-2582,icosan-1-ol,BTFJIXJJCSYFAL-UHFFFAOYSA-N,CCCCCCCCCCCCCCCCCCCCO,-5.4750243489
A-2583,manganese(3+) ion ammonium (phosphonatooxy)phosphonate,UHHXUPJJDHEMGX-UHFFFAOYSA-K,[NH4+].[Mn+3].[O-][P]([O-])(=O)O[P]([O-])([O-])=O,-5.3925527506
A-2584,octadecan-1-ol,GLDOVTGHNKAZLK-UHFFFAOYSA-N,CCCCCCCCCCCCCCCCCCO,-5.432168875
A-2586,propan-2-yl dodecanoate,UJPPXNXOEVDSRW-UHFFFAOYSA-N,CCCCCCCCCCCC(=O)OC(C)C,-5.3845379904
A-2587,tetracosan-1-ol,TYWMIZZBOVGFOV-UHFFFAOYSA-N,CCCCCCCCCCCCCCCCCCCCCCCCO,-5.5498158833
A-2589,undec-3-ene,SDTYFWAQLSIEBH-FNORWQNLSA-N,CCCCCCC\C=C\CC,-5.1883574821
A-2590,vinyl laurate,GLVVKKSPKXTQRB-UHFFFAOYSA-N,CCCCCCCCCCCC(=O)OC=C,-5.3547996853
A-2591,zinc(2+) ion bis((dibutylcarbamothioyl)sulfanide),BOXSVZNGTQTENJ-UHFFFAOYSA-L,[Zn++].CCCCN(CCCC)C([S-])=S.CCCCN(CCCC)C([S-])=S,-5.6759230824
A-2592,"1,4-xylene 4-(methoxycarbonyl)benzoic acid 4-methylbenzoic acid benzoic acid 1,2,4-trimethyl benzene-1,2,4-tricarboxylate 1,2-dimethyl 4-methylbenzene-1,2-dicarboxylate 1,2-dimethyl benzene-1,2-dicarboxylate 1,3-dimethyl benzene-1,3-dicarboxylate 1,4-dimethyl 2-[4-(methoxycarbonyl)phenyl]benzene-1,4-dicarboxylate 1,4-dimethyl benzene-1,4-dicarboxylate 1-[4-(methoxycarbonyl)phenyl]methyl 4-methyl benzene-1,4-dicarboxylate 1-methyl 4-(4-methylphenyl)methyl benzene-1,4-dicarboxylate 2,6-dimethyl 9-oxo-9H-fluorene-2,6-dicarboxylate [4-(methoxycarbonyl)phenyl]methyl 4-methylbenzoate methyl 1-methyl-6-oxo-6H-benzo[c]chromene-4-carboxylate methyl 2-[4-(methoxycarbonyl)phenyl]-4-methylbenzoate methyl 2-[4-(methoxycarbonyl)phenyl]benzoate methyl 3-[4-(methoxycarbonyl)phenyl]benzoate methyl 4-(dimethoxymethyl)benzoate methyl 4-(hydroxymethyl)benzoate methyl 4-[4-(methoxycarbonyl)phenyl]benzoate methyl 4-formylbenzoate methyl 4-methylbenzoate methyl benzoate",DERNUBFICIQBEP-UHFFFAOYSA-N,COC(OC)c1ccc(cc1)C(=O)OC.COC(=O)c2ccccc2.COC(=O)c3ccc(C)cc3.COC(=O)c4ccc(CO)cc4.COC(=O)c5ccc(COC(=O)c6ccc(C)cc6)cc5.COC(=O)c7ccc(COC(=O)c8ccc(cc8)C(=O)OC)cc7.COC(=O)c9ccc(C=O)cc9.COC(=O)c%10ccc(cc%10)C(O)=O.COC(=O)c%11ccc(cc%11)C(=O)OC.COC(=O)c%12ccc(cc%12)C(=O)OCc%13ccc(C)cc%13.COC(=O)c%14ccc(cc%14)c%15ccc(cc%15)C(=O)OC.COC(=O)c%16ccc(cc%16)c%17cccc(c%17)C(=O)OC.COC(=O)c%18ccc(cc%18)c%19ccccc%19C(=O)OC.COC(=O)c%20ccc(cc%20)c%21cc(C)ccc%21C(=O)OC.COC(=O)c%22ccc(cc%22)c%23cc(ccc%23C(=O)OC)C(=O)OC.COC(=O)c%24cccc(c%24)C(=O)OC.COC(=O)c%25ccc(C(=O)OC)c(c%25)C(=O)OC.COC(=O)c%26ccc%27c(c%26)C(=O)c%28ccc(cc%27%28)C(=O)OC.COC(=O)c%29ccc(C)c%30c%29OC(=O)c%31ccccc%30%31.COC(=O)c%32ccccc%32C(=O)OC.COC(=O)c%33ccc(C)cc%33C(=O)OC.Cc%34ccc(C)cc%34.Cc%35ccc(cc%35)C(O)=O.OC(=O)c%36ccccc%36,-6.7316777728
A-2593,"2-[3-(heptan-3-yl)-1,2-oxazolidin-2-yl]ethyl N-{6-[({2-[3-(heptan-3-yl)-1,2-oxazolidin-2-yl]ethoxy}carbonyl)amino]hexyl}carbamate",BDNIMOQMOANQMV-UHFFFAOYSA-N,CCCCC(CC)C1CCON1CCOC(=O)NCCCCCCNC(=O)OCCN2OCCC2C(CC)CCCC,-5.7905608237
A-2594,methyl 3-[3-(benzotriazol-2-yl)-5-tert-butyl-4-hydroxyphenyl]propanoate,UJRDRFZCRQNLJM-UHFFFAOYSA-N,COC(=O)CCc1cc(n2nc3ccccc3n2)c(O)c(c1)C(C)(C)C,-6.8493235759
A-2595,3-octadecyl-1-[4-({4-[(octadecylcarbamoyl)amino]phenyl}methyl)phenyl]urea,IHBLBMDDUQOYLA-UHFFFAOYSA-N,CCCCCCCCCCCCCCCCCCNC(=O)Nc1ccc(Cc2ccc(NC(=O)NCCCCCCCCCCCCCCCCCC)cc2)cc1,-5.9429946413
A-2596,"2,5,7,8-tetramethyl-2-(4,8,12-trimethyltridecyl)-3,4-dihydro-2H-1-benzopyran-6-yl acetate",ZAKOWWREFLAJOT-CEFNRUSXSA-N,CC(C)CCC[C@@H](C)CCC[C@@H](C)CCC[C@]1(C)CCc2c(C)c(OC(C)=O)c(C)c(C)c2O1,-5.7715452251
A-2597,"1,4-bis(iodomethyl)cyclohexane",CADHELUGADNHSF-UHFFFAOYSA-N,ICC1CCC(CI)CC1,-5.7481975718
A-2598,"[1,3(or 1,4)-phenylenebis(1-methylethylidene)]bis[tert-butyl] peroxide",GWQOYRSARAWVTC-UHFFFAOYSA-N,CC(C)(C)OOC(C)(C)c1ccc(cc1)C(C)(C)OOC(C)(C)C,-5.7371515873
A-2599,Boehmite (Al(OH)O),VXAUWWUXCIMFIM-UHFFFAOYSA-M,[OH-].[O--].[Al+3],-5.0252479516
A-2601,"1,1'-disulfanediyldioctadecane",MQQKTNDBASEZSD-UHFFFAOYSA-N,CCCCCCCCCCCCCCCCCCSSCCCCCCCCCCCCCCCCCC,-6.0577588855
A-2602,2-decyltetradecanoic acid,OYXVDHZABMXCMX-UHFFFAOYSA-N,CCCCCCCCCCCCC(CCCCCCCCCC)C(O)=O,-5.8676395216
A-2604,ZIRCONIUM,QCWXUUIWCKQGHC-UHFFFAOYSA-N,[Zr],-5.35804912
A-2605,"2,2,4,6,6-pentamethyl-4-[(trimethylsilyl)oxy]-3,5-dioxa-2,4,6-trisilaheptane",RGMZNZABJYWAEC-UHFFFAOYSA-N,C[Si](C)(C)O[Si](C)(O[Si](C)(C)C)O[Si](C)(C)C,-5.9360261722
A-2606,N-(2-ethoxyphenyl)-N'-[4-(10-methylundecyl)phenyl]ethanediamide,PIPJHDJQUXGVNR-UHFFFAOYSA-N,CCOc1ccccc1NC(=O)C(=O)Nc2ccc(CCCCCCCCCC(C)C)cc2,-6.0994494699
A-2607,Silicon nitride,HQVNEWCFYHHQES-UHFFFAOYSA-N,N12[Si]34N5[Si]16N3[Si]25N46,-5.6698930776
A-2608,"2-ethylhexyl 3,5,5-trimethylhexanoate",LCVHZNSIAYNAGX-UHFFFAOYSA-N,CCCCC(CC)COC(=O)CC(C)CC(C)(C)C,-5.9549769717
A-2609,calcium titanium trioxide,WEUCVIBPSSMHJG-UHFFFAOYSA-N,[O--].[O--].[O--].[Ca++].[Ti+4],-5.6562324003
A-2610,"heptyl 3-[3-(2H-1,2,3-benzotriazol-2-yl)-5-tert-butyl-4-hydroxyphenyl]propanoate nonyl 3-[3-(2H-1,2,3-benzotriazol-2-yl)-5-tert-butyl-4-hydroxyphenyl]propanoate octyl 3-[3-(2H-1,2,3-benzotriazol-2-yl)-5-tert-butyl-4-hydroxyphenyl]propanoate",HMILXGPZMQDAKE-UHFFFAOYSA-N,CCC(C)CCCOC(=O)CCc1cc(n2nc3ccccc3n2)c(O)c(c1)C(C)(C)C,-6.1639401792
A-2613,dicalcium (phosphonatooxy)phosphonate,JUNWLZAGQLJVLR-UHFFFAOYSA-J,[Ca++].[Ca++].[O-][P]([O-])(=O)O[P]([O-])([O-])=O,-5.9984593571
A-2614,"4-[(4-hydroxy-9,10-dioxo-9,10-dihydroanthracen-1-yl)amino]phenyl methanesulfonate",NTZOUXAZCADJBZ-UHFFFAOYSA-N,C[S](=O)(=O)Oc1ccc(Nc2ccc(O)c3C(=O)c4ccccc4C(=O)c23)cc1,-6.2142279845
A-2615,"nickel(2+) ion butan-1-amine 2-{[2-oxido-5-(2,4,4-trimethylpentan-2-yl)phenyl]sulfanyl}-4-(2,4,4-trimethylpentan-2-yl)benzen-1-olate",DPLLDVMBMPQDCO-UHFFFAOYSA-L,[Ni++].CCCCN.CC(C)(C)CC(C)(C)c1ccc([O-])c(Sc2cc(ccc2[O-])C(C)(C)CC(C)(C)C)c1,-6.4460405944
A-2617,4-(2-{3-[2-(4-hydroxyphenyl)propan-2-yl]phenyl}propan-2-yl)phenol,KOWHWSRFLBFYRR-UHFFFAOYSA-N,CC(Cc1cccc(CC(C)c2ccc(O)cc2)c1)c3ccc(O)cc3,-6.2386356404
A-2618,N-(3-methylphenyl)-4-{4-[(3-methylphenyl)(phenyl)amino]phenyl}-N-phenylaniline,OGGKVJMNFFSDEV-UHFFFAOYSA-N,Cc1cccc(c1)N(c2ccccc2)c3ccc(cc3)c4ccc(cc4)N(c5ccccc5)c6cccc(C)c6,-6.4121983796
A-2619,N-methyl-N-phenyl{[methyl(phenyl)carbamothioyl]disulfanyl}carbothioamide,RDQQCSOIXMZZQR-UHFFFAOYSA-N,CN(C(=S)SSC(=S)N(C)c1ccccc1)c2ccccc2,-6.2607699922
A-2620,"N-{2-[(2-cyano-4,6-dinitrophenyl)diazenyl]-5-(diethylamino)phenyl}acetamide",NHBNDXGKNAEBAI-UHFFFAOYSA-N,CCN(CC)c1ccc(N=Nc2c(cc(cc2[N+]([O-])=O)[N+]([O-])=O)C#N)c(NC(C)=O)c1,-6.3277725944
A-2621,"Phenol, 4-methyl-, reaction products with dicyclopentadiene and isobutylene",UQQYHXZNSYZMEN-UHFFFAOYSA-N,CC(C)=C.Cc1ccc(O)cc1.C2C=CC3C4CC(C=C4)C23,-6.1709273189
A-2622,"Sorbitan monolaurate, ethoxylated",HMFKFHLTUCJZJO-UHFFFAOYSA-N,CCCCCCCCCCCC(=O)OCCOCC(OCCO)C1OCC(OCCO)C1OCCO,-6.4172025632
A-2623,16-methylheptadecan-1-ol,WNWHHMBRJJOGFJ-UHFFFAOYSA-N,CC(C)CCCCCCCCCCCCCCCO,-6.2560776159
A-2624,"2,3-bis(acetyloxy)propyl dodecanoate",NBMAHNZMRSQCPG-UHFFFAOYSA-N,CCCCCCCCCCCC(=O)OCC(COC(C)=O)OC(C)=O,-6.3783676144
A-2625,"2-Butenedioic acid (E)-, di-C12-18-alkyl esters",CUKXIDNDOQQWQN-QVIHXGFCSA-N,CCCCCCCCCCCCCCCOC(=O)/C=C/C(=O)OCCCCCCCCCCCCCCC,-6.5537875846
A-2626,"2-Butenedioic acid (E)-, di-C8-18-alkyl esters",TVWTZAGVNBPXHU-FOCLMDBBSA-N,CCCCCCCCOC(=O)\C=C\C(=O)OCCCCCCCC,-6.356030959
A-2627,bis(4-isocyanatophenyl) [(4-isocyanatophenyl)sulfanyl]phosphonate,KGLSETWPYVUTQX-UHFFFAOYSA-N,O=C=Nc1ccc(O[P](=S)(Oc2ccc(cc2)N=C=O)Oc3ccc(cc3)N=C=O)cc1,-6.4917192558
A-2628,bis(8-methylnonyl) but-2-enedioate,WVUCNLQROBXNOX-ISLYRVAYSA-N,CC(C)CCCCCCCOC(=O)\C=C\C(=O)OCCCCCCCC(C)C,-6.4222745911
A-2629,didodecyl but-2-enedioate,HEJZJSIRBLOWPD-WCWDXBQESA-N,CCCCCCCCCCCCOC(=O)\C=C\C(=O)OCCCCCCCCCCCC,-6.4797384219
A-2630,propan-2-yl (9Z)-octadec-9-enoate,PZQSQRCNMZGWFT-QXMHVHEDSA-N,CCCCCCCC\C=C/CCCCCCCC(=O)OC(C)C,-6.3351890163
A-2631,"2,2-bis(hydroxymethyl)propane-1,3-diol; decanoic acid; heptanoic acid; octanoic acid",DZVDMBMUZJQKGH-UHFFFAOYSA-N,CCCCCCCCCC(O)=O.CCCCCCCC(O)=O.CCCCCCC(O)=O.OCC(CO)(CO)CO,-6.6194034302
A-2632,"2,3,4-Tris(6-diazo-5,6-dihydro-5-oxo-1-naphthalenesulfonyloxy)benzophenone",IYBMFZHGMIRLPI-UHFFFAOYSA-N,[N-]=[N+]=C1C=Cc2c(cccc2[S](=O)(=O)Oc3ccc(C(=O)c4ccccc4)c(O[S](=O)(=O)c5cccc6C(=O)C(C=Cc56)=[N+]=[N-])c3O[S](=O)(=O)c7cccc8C(=O)C(C=Cc78)=[N+]=[N-])C1=O,-6.8208950069
A-2633,triethoxy(octyl)silane,MSRJTTSHWYDFIU-UHFFFAOYSA-N,CCCCCCCC[Si](OCC)(OCC)OCC,-6.3277407884
A-2635,12-hydroxy-N-[2-(12-hydroxyoctadecanamido)ethyl]octadecanamide,YLWQQYRYYZPZLJ-UHFFFAOYSA-N,CCCCCCC(O)CCCCCCCCCCC(=O)NCCNC(=O)CCCCCCCCCCC(O)CCCCCC,-6.7352071916
A-2636,"2-[4-(4-oxo-4H-3,1-benzoxazin-2-yl)phenyl]-4H-3,1-benzoxazin-4-one",BBITXNWQALLODC-UHFFFAOYSA-N,O=C1OC(=Nc2ccccc12)c3ccc(cc3)C4=Nc5ccccc5C(=O)O4,-6.5170402935
A-2637,(13Z)-docos-13-enamide,UAUDZVJPLUQNMU-KTKRTIGZSA-N,CCCCCCCC\C=C/CCCCCCCCCCCC(N)=O,-6.5283921465
A-2638,"1,1',1''-methanetriyltris(4-isocyanatobenzene)",LTIKIBFTASQKMM-UHFFFAOYSA-N,O=C=Nc1ccc(cc1)C(c2ccc(cc2)N=C=O)c3ccc(cc3)N=C=O,-6.5650965952
A-2639,"1,2-Benzenedicarboxylic acid, di-C8-10-branched alkyl esters, C9-rich",HBGGXOJOCNVPFY-UHFFFAOYSA-N,CC(C)CCCCCCOC(=O)c1ccccc1C(=O)OCCCCCCC(C)C,-6.6218178985
A-2641,"1,6-bis(2-ethylhexyl) hexanedioate",SAOKZLXYCUGLFA-UHFFFAOYSA-N,CCCCC(CC)COC(=O)CCCCC(=O)OCC(CC)CCCC,-6.5688749453
A-2642,"1,6-bis(2-methylnonyl) hexanedioate",YKGYQYOQRGPFTO-UHFFFAOYSA-N,CC(C)CCCCCCCOC(=O)CCCCC(=O)OCCCCCCCC(C)C,-6.6301043221
A-2643,"1,6-bis(7-methyloctyl) hexanedioate",AYWLCKHHUFBVGJ-UHFFFAOYSA-N,CC(C)CCCCCCOC(=O)CCCCC(=O)OCCCCCCC(C)C,-6.6005678007
A-2644,1-(octyloxy)octane,NKJOXAZJBOMXID-UHFFFAOYSA-N,CCCCCCCCOCCCCCCCC,-6.3846168146
A-2645,1-(vinyloxy)octadecane,QJJDJWUCRAPCOL-UHFFFAOYSA-N,CCCCCCCCCCCCCCCCCCOC=C,-6.4720818187
A-2646,"2-(3,4-dihydroxyoxolan-2-yl)-2-hydroxyethyl 3-methylheptadecanoate",DAPHOROYFQLVHF-DAPNYWPISA-N,CC(C)CCCCCCCCCCCCCCC(O)=O.OC[C@H](O)[C@@H](O)[C@H](O)C(O)O,-6.6557423758
A-2647,"2-ethylhexyl 2-cyano-3,3-diphenylprop-2-enoate",FMJSMJQBSVNSBF-UHFFFAOYSA-N,CCCCC(CC)COC(=O)C(C#N)=C(c1ccccc1)c2ccccc2,-6.5580902807
A-2648,"2-fluoro-4-[4-(4-propylcyclohexyl)cyclohexyl]-1-(3,4,5-trifluorophenyl)benzene",RHJZNALCKPDGPQ-UHFFFAOYSA-N,CCCC1CCC(CC1)C2CCC(CC2)c3ccc(c(F)c3)c4cc(F)c(F)c(F)c4,-6.6360312962
A-2649,2-octyldodecan-1-ol,LEACJMVNYZDSKR-UHFFFAOYSA-N,CCCCCCCCCCC(CO)CCCCCCCC,-6.4750243489
A-2650,Naphthalic anhydride,GRSMWKLPSNHDHA-UHFFFAOYSA-N,O=C1OC(=O)c2cccc3cccc1c23,-6.2970532498
A-2651,"3-{[3-(3,5-di-tert-butyl-4-hydroxyphenyl)propanoyl]oxy}-2,2-bis({[3-(3,5-di-tert-butyl-4-hydroxyphenyl)propanoyl]oxy}methyl)propyl 3-(3,5-di-tert-butyl-4-hydroxyphenyl)propanoate",BGYHLZZASRKEJE-UHFFFAOYSA-N,CC(C)(C)c1cc(CCC(=O)OCC(COC(=O)CCc2cc(c(O)c(c2)C(C)(C)C)C(C)(C)C)(COC(=O)CCc3cc(c(O)c(c3)C(C)(C)C)C(C)(C)C)COC(=O)CCc4cc(c(O)c(c4)C(C)(C)C)C(C)(C)C)cc(c1O)C(C)(C)C,-7.0710180803
A-2652,"4-(2,4,4-trimethylpentan-2-yl)-N-[4-(2,4,4-trimethylpentan-2-yl)phenyl]aniline",GQBHYWDCHSZDQU-UHFFFAOYSA-N,CC(C)(C)CC(C)(C)c1ccc(Nc2ccc(cc2)C(C)(C)CC(C)(C)C)cc1,-6.5951201849
A-2656,8-ethyl-9-methylheptadecane; 8-methyl-7-propylhexadecane,BWQCJPOGHSLKTK-UHFFFAOYSA-N,CCCCCCCCC(C)C(CC)CCCCCCC.CCCCCCCCC(C)C(CCC)CCCCCC,-6.7521345295
A-2657,"N-[2-(2-heptadecyl-4,5-dihydro-1H-imidazol-1-yl)ethyl]octadecanamide; N-{2-[(2-octadecanamidoethyl)amino]ethyl}octadecanamide; bis(acetic acid)",VGSJTKYUFRVBDY-UHFFFAOYSA-N,CCCCCCCCCCCCCCCCCC(=O)NCCNCCNC(=O)CCCCCCCCCCCCCCCCC.CCCCCCCCCCCCCCCCCC(=O)NCCN1CCN=C1CCCCCCCCCCCCCCCCC.CC(O)=O.CC(O)=O,-7.1380824945
A-2658,N-[3-(dimethylamino)propyl]docosanamide,MNAZHGAWPCLLGX-UHFFFAOYSA-N,CCCCCCCCCCCCCCCCCCCCCC(=O)NCCCN(C)C,-6.6281415672
A-2659,"Octadecan-1-ol, ethoxylated",PSEGVHKUPXNGGJ-UHFFFAOYSA-N,CCCCCCCCCCCCCCCCCCOCC[O],-6.4963012647
A-2661,Talc (Mg3H2(SiO3)4),KNXVOGGZOFOROK-UHFFFAOYSA-N,[Mg++].[Mg++].[Mg++].O[Si]([O-])=O.O[Si]([O-])=O.[O-][Si]([O-])=O.[O-][Si]([O-])=O,-6.578940476
A-2662,"[phenyl(2,4,6-trimethylbenzoyl)phosphoryl](2,4,6-trimethylphenyl)methanone",GUCYFKSBFREPBC-UHFFFAOYSA-N,Cc1cc(C)c(c(C)c1)C(=O)[P](=O)(C(=O)c2c(C)cc(C)cc2C)c3ccccc3,-6.6216674424
A-2663,dialuminium(3+) ion dicalcium pentaoxidandiide,HGCYUAJUOYGULZ-UHFFFAOYSA-N,[O--].[O--].[O--].[O--].[O--].[Al+3].[Al+3].[Ca++].[Ca++],-6.3306470932
A-2664,dimethoxybis(propan-2-yl)silane,VHPUZTHRFWIGAW-UHFFFAOYSA-N,CO[Si](OC)(C(C)C)C(C)C,-6.2463311334
A-2665,dodecanoyl dodecaneperoxoate,YIVJZNGAASQVEM-UHFFFAOYSA-N,CCCCCCCCCCCC(=O)OOC(=O)CCCCCCCCCCC,-6.6005678007
A-2666,octyl (2R)-2-(4-chloro-2-methylphenoxy)propanoate,QWQMRXFSCXUHMR-OAHLLOKOSA-N,CCCCCCCCOC(=O)[C@@H](C)Oc1ccc(Cl)cc1C,-6.5143670911
A-2667,silver cyanide,LFAGQMCIGQNPJG-UHFFFAOYSA-N,[Ag+].[C-]#N,-6.1267351667
A-2668,titanium(2+) ion dihydride,KAZWGWWZKAHTKC-UHFFFAOYSA-N,[Ti++].[H-].[H-],-5.6979525644
A-2669,titanium(4+) ion bis(oxosilanebis(olate)),LMYUVIRTIDGPBO-UHFFFAOYSA-N,[Ti+4].[O-][Si]([O-])=O.[O-][Si]([O-])=O,-6.3011016483
A-2673,"2,2-bis[(nonanoyloxy)methyl]butyl nonanoate",KDMAJIXYCNOVJB-UHFFFAOYSA-N,CCCCCCCCC(=O)OCC(CC)(COC(=O)CCCCCCCC)COC(=O)CCCCCCCC,-6.8410879515
A-2674,"2,5-bis(1,1-dimethylpropyl)benzene-1,4-diol",CZNRFEXEPBITDS-UHFFFAOYSA-N,CCC(C)(C)c1cc(O)c(cc1O)C(C)(C)CC,-6.4955131172
A-2675,diiron(3+) ion distrontium(2+) ion pentaoxidandiide,GKHGYOYJUWWDJG-UHFFFAOYSA-N,[O--].[O--].[O--].[O--].[O--].[Fe+3].[Fe+3].[Sr++].[Sr++],-6.6614873159
A-2676,zirconium dihydride,IUJYJRCMJZIAJY-UHFFFAOYSA-N,[H-].[H-].[Zr++],-6.0665122779
A-2677,"10,13-dimethyl-17-(2-methyl-1,3-dioxolan-2-yl)-1,2,4,9,10,11,12,13,14,15,16,17-dodecahydrospiro[cyclopenta[a]phenanthrene-3,2'-[1,3]dioxolane]",CFZNXPSHLNMZGD-UHFFFAOYSA-N,CC1(OCCO1)C2CCC3C4=CC=C5CC6(CCC5(C)C4CCC23C)OCCO6,-6.7001197149
A-2678,"[(1S,2R,5S)-5-methyl-2-propan-2-ylcyclohexyl] acetate",XHXUANMFYXWVNG-WCQGTBRESA-N,CC(C)[C@H]1CC[C@H](C)C[C@@H]1OC(C)=O,-4.0668869332
A-2680,Ciaftalan zinc,PODBBOVVOGJETB-UHFFFAOYSA-N,[Zn++].[n-]1c2nc3[n-]c(nc4nc(nc5nc(nc1c6ccccc26)c7ccccc57)c8ccccc48)c9ccccc39,-6.9837209828
A-2681,2-{[2-(acetyloxy)ethyl]({4-[(E)-2-(2-chloro-4-nitrophenyl)diazen-1-yl]-3-acetamidophenyl})amino}ethyl acetate,ORDDDNUMJXPGOC-UHFFFAOYSA-N,CC(=O)Nc1cc(ccc1N=Nc2ccc(cc2Cl)[N+]([O-])=O)N(CCOC(C)=O)CCOC(C)=O,-6.9637148666
A-2684,"(2R)-2-[(2R,3R,4S)-3,4-bis(octadecanoyloxy)oxolan-2-yl]-2-hydroxyethyl octadecanoate (2R)-2-[(2R,3R,4S)-3,4-dihydroxyoxolan-2-yl]-2-hydroxyethyl octadecanoate (2R)-2-hydroxy-2-[(2R,3R,4S)-3-hydroxy-4-(octadecanoyloxy)oxolan-2-yl]ethyl (9Z)-octadec-9-enoate",IJCWFDPJFXGQBN-BIFNRIDTSA-N,CCCCCCCCCCCCCCCCCC(=O)OCC(OC(=O)CCCCCCCCCCCCCCCCC)[C@H]1OC[C@@H](O)[C@@H]1OC(=O)CCCCCCCCCCCCCCCCC,-7.2849105615
A-2685,"(2R)-2-[(2R,3R,4S)-3,4-dihydroxyoxolan-2-yl]-2-hydroxyethyl hexadecanoate",IYFATESGLOUGBX-CBOZIWPYSA-N,CCCCCCCCCCCCCCCC(=O)OCC(O)[C@H]1OC[C@@H](O)[C@@H]1O,-6.9058735609
A-2687,"1,2,4-tris(2-methyldodecyl) benzene-1,2,4-tricarboxylate",IGQFKXMQIMEIJV-UHFFFAOYSA-N,CC(C)CCCCCCCCCCOC(=O)c1ccc(C(=O)OCCCCCCCCCCC(C)C)c(c1)C(=O)OCCCCCCCCCCC(C)C,-7.1802371596
A-2688,"1,3-bis(heptanoyloxy)propan-2-yl heptanoate",PJHKBYALYHRYSK-UHFFFAOYSA-N,CCCCCCC(=O)OCC(COC(=O)CCCCCC)OC(=O)CCCCCC,-6.9330922951
A-2689,"1,3-bis[(12-hydroxyoctadecanoyl)oxy]propan-2-yl 12-hydroxyoctadecanoate",WCOXQTXVACYMLM-UHFFFAOYSA-N,CCCCCCC(O)CCCCCCCCCCC(=O)OCC(COC(=O)CCCCCCCCCCC(O)CCCCCC)OC(=O)CCCCCCCCCCC(O)CCCCCC,-7.2739258556
A-2690,"1,3-bis[(2-ethylhexanoyl)oxy]propan-2-yl 2-ethylhexanoate",DGSZGZSCHSQXFV-UHFFFAOYSA-N,CCCCC(CC)C(=O)OCC(COC(=O)C(CC)CCCC)OC(=O)C(CC)CCCC,-6.97376589
A-2691,"1,3-bis[(9Z)-octadec-9-enoyloxy]propan-2-yl (9Z)-octadec-9-enoate",PHYFQTYBJUILEZ-IUPFWZBJSA-N,CCCCCCCC\C=C/CCCCCCCC(=O)OCC(COC(=O)CCCCCCC\C=C/CCCCCCCC)OC(=O)CCCCCCC\C=C/CCCCCCCC,-7.2481955094
A-2692,"1,6-bis(2-methylheptyl) hexanedioate",CJFLBOQMPJCWLR-UHFFFAOYSA-N,CC(C)CCCCCOC(=O)CCCCC(=O)OCCCCCC(C)C,-6.869904941
A-2693,1-(octadecyloxy)octadecane,HBXWUCXDUUJDRB-UHFFFAOYSA-N,CCCCCCCCCCCCCCCCCCOCCCCCCCCCCCCCCCCCC,-7.0195208893
A-2694,"2,2-bis[(heptanoyloxy)methyl]butyl heptanoate (non-preferred name)",UQJDVLPHTXQTRP-UHFFFAOYSA-N,CCCCCCC(=O)OCC(CC)(COC(=O)CCCCCC)COC(=O)CCCCCC,-6.97376589
A-2695,"2,2-dimethyl-3-[(9Z)-octadec-9-enoyloxy]propyl (9Z)-octadec-9-enoate",AMZKGJLFYCZDMJ-WRBBJXAJSA-N,CCCCCCCC\C=C/CCCCCCCC(=O)OCC(C)(C)COC(=O)CCCCCCC\C=C/CCCCCCCC,-7.1024714389
A-2696,"2,2-dimethylpropane-1,3-diyl dioctanoate",WFXHUBZUIFLWCV-UHFFFAOYSA-N,CCCCCCCC(=O)OCC(C)(C)COC(=O)CCCCCCC,-6.8531467823
A-2698,"2-Butenedioic acid (E)-, di-C16-18-alkyl esters",ZUWLIWZVBOETHU-JEIPZWNWSA-N,CCCCCCCCCCCCCCCCCOC(=O)/C=C/C(=O)OCCCCCCCCCCCCCCCCC,-7.0740773653
A-2699,2-bromo-N-[4-chloro-2-(2-chlorobenzoyl)phenyl]acetamide,JQMAWYRGSOSWNJ-UHFFFAOYSA-N,Clc1ccc(NC(=O)CBr)c(c1)C(=O)c2ccccc2Cl,-6.8888082879
A-2701,"2-ethyl-2-[[(1-oxoisooctadecyl)oxy]methyl]-1,3-propanediyl bis(isooctadecanoate)",RKJGFHYCZPZJPE-UHFFFAOYSA-N,CCC(COC(=O)CCCCCCCCCCCCCCC(C)C)(COC(=O)CCCCCCCCCCCCCCC(C)C)COC(=O)CCCCCCCCCCCCCCC(C)C,-7.2711824653
A-2702,2-ethylhexyl octadecanoate,IIGMITQLXAGZTL-UHFFFAOYSA-N,CCCCCCCCCCCCCCCCCC(=O)OCCCCCCCC,-6.8994921961
A-2703,2-tetradecyloxirane,DSZTYVZOIUIIGA-UHFFFAOYSA-N,CCCCCCCCCCCCCCC1CO1,-6.6820204584
A-2704,"3-(3,5-di-tert-butyl-4-hydroxyphenyl)-N'-[3-(3,5-di-tert-butyl-4-hydroxyphenyl)propanoyl]propanehydrazide",HCILJBJJZALOAL-UHFFFAOYSA-N,CC(C)(C)c1cc(CCC(=O)NNC(=O)CCc2cc(c(O)c(c2)C(C)(C)C)C(C)(C)C)cc(c1O)C(C)(C)C,-7.04359803
A-2705,"3-(heptanoyloxy)-2,2-bis[(heptanoyloxy)methyl]propyl heptanoate",NCGQPNAQUYGWMI-UHFFFAOYSA-N,CCCCCCC(=O)OCC(COC(=O)CCCCCC)(COC(=O)CCCCCC)COC(=O)CCCCCC,-7.0680633512
A-2706,"3-(oleoyloxy)-2,2-bis[(oleoyloxy)methyl]propyl octadec-9-enoate (non-preferred name)",QTIMEBJTEBWHOB-PMDAXIHYSA-N,CCCCCCCC\C=C/CCCCCCCC(=O)OCC(COC(=O)CCCCCCC\C=C/CCCCCCCC)(COC(=O)CCCCCCC\C=C/CCCCCCCC)COC(=O)CCCCCCC\C=C/CCCCCCCC,-7.3780194092
A-2707,"3-[(3-methylnonadecanoyl)oxy]-2,2-bis({[(3-methylnonadecanoyl)oxy]methyl})propyl 3-methylnonadecanoate",LPGFSDGXTDNTCB-UHFFFAOYSA-N,CC(C)CCCCCCCCCCCCCCC(=O)OCC(COC(=O)CCCCCCCCCCCCCCC(C)C)(COC(=O)CCCCCCCCCCCCCCC(C)C)COC(=O)CCCCCCCCCCCCCCC(C)C,-7.3809427734