ID,Name,InChIKey,SMILES,Solubility
B-2988,triadimenol,BAZVSMNPJJMILC-UHFFFAOYSA-N,CC(C)(C)C(O)C(Oc1ccc(Cl)cc1)n2cncn2,-3.3918
B-2989,propentofylline,RBQOQRRFDPXAGN-UHFFFAOYSA-N,CCCn1cnc2N(C)C(=O)N(CCCCC(C)=O)C(=O)c12,-0.9811
B-2990,praziquantel,FSVJFNAIGNNGKK-UHFFFAOYSA-N,O=C1CN(CC2N1CCc3ccccc23)C(=O)C4CCCCC4,-2.8927
B-2992,dimethipin,PHVNLLCAQHGNKU-UHFFFAOYSA-N,CC1=C(C)[S](=O)(=O)CC[S]1(=O)=O,-1.66
B-2993,"2,2',3,4,5-pentachlorobiphenyl",AIURIRUDHVDRFQ-UHFFFAOYSA-N,Clc1ccccc1c2cc(Cl)c(Cl)c(Cl)c2Cl,-7.5226
B-2994,"phosphoric acid, ethyl dipropyl ester",ANPYQJSSFZGXFE-UHFFFAOYSA-N,CCCO[P](=O)(OCC)OCCC,-0.9802
B-2995,triclopyr,REEQLXCGVXDJSQ-UHFFFAOYSA-N,OC(=O)COc1nc(Cl)c(Cl)cc1Cl,-2.7656
B-2996,buthidazole,SWMGXKSQWDSBKV-UHFFFAOYSA-N,CN1CC(O)N(C1=O)c2sc(nn2)C(C)(C)C,-1.8773
B-2997,pyridate,JTZCTMAVMHRNTR-UHFFFAOYSA-N,CCCCCCCCSC(=O)Oc1cc(Cl)nnc1c2ccccc2,-5.4025
B-2998,"3,4-dichlorodiphenyl ether",QFQLZVAAQOJUFS-UHFFFAOYSA-N,Clc1ccc(Oc2ccccc2)cc1Cl,-4.7206
B-3000,"2,3,4-trichloro-1,1'-biphenyl",IUYHQGMDSZOPDZ-UHFFFAOYSA-N,Clc1ccc(c2ccccc2)c(Cl)c1Cl,-6.1799
B-3001,"1,3,7-trichloronaphthalene",CFEUGIGSIREATC-UHFFFAOYSA-N,Clc1ccc2cc(Cl)cc(Cl)c2c1,-6.5557
B-3002,"2,3,6-trichloronaphthalene",ZYTLBFKRYKUCMJ-UHFFFAOYSA-N,Clc1ccc2cc(Cl)c(Cl)cc2c1,-7.1419
B-3003,"1,4,6,7-tetrachloronaphthalene",VJZRCIYSYVGDMU-UHFFFAOYSA-N,Clc1ccc(Cl)c2cc(Cl)c(Cl)cc12,-7.5163
B-3004,mepronil,BCTQJXQXJVLSIG-UHFFFAOYSA-N,CC(C)Oc1cccc(NC(=O)c2ccccc2C)c1,-4.3265
B-3005,isouron,JLLJHQLUZAKJFH-UHFFFAOYSA-N,CN(C)C(=O)Nc1cc(on1)C(C)(C)C,-2.4272
B-3006,sufentanil,GGCSSNBKKAUURC-UHFFFAOYSA-N,CCC(=O)N(c1ccccc1)C2(CCN(CCc3sccc3)CC2)COC,-3.7064
B-3007,"2,2',3,4,4',6-hexachlorobiphenyl",SPOPSCCFZQFGDL-UHFFFAOYSA-N,Clc1ccc(c(Cl)c1)c2c(Cl)cc(Cl)c(Cl)c2Cl,-7.4721
B-3008,"2-heptanol, 4-methyl-",GUHWHNUGIGOSCN-UHFFFAOYSA-N,CCCC(C)CC(C)O,-1.8779
B-3009,flurprimidol,VEVZCONIUDBCDC-UHFFFAOYSA-N,CC(C)C(O)(c1ccc(OC(F)(F)F)cc1)c2cncnc2,-3.4377
B-3010,"benzenepropanal, .alpha.-oxo-",OFMBSIAKTAZWIE-UHFFFAOYSA-N,O=CC(=O)Cc1ccccc1,-2.1707
B-3011,"2,2',4,6,6'-pentachlorobiphenyl",MTCPZNVSDFCBBE-UHFFFAOYSA-N,Clc1cc(Cl)c(c(Cl)c1)c2c(Cl)cccc2Cl,-7.316
B-3012,"2,3',4,4',6-pentachlorobiphenyl",OAEQTHQGPZKTQP-UHFFFAOYSA-N,Clc1cc(Cl)c(c(Cl)c1)c2ccc(Cl)c(Cl)c2,-7.91
B-3013,"1,1'-biphenyl, 2,3',4,5',6-pentachloro-",XBVSGJGMWSKAKL-UHFFFAOYSA-N,Clc1cc(Cl)c(c(Cl)c1)c2cc(Cl)cc(Cl)c2,-7.92
B-3014,"1(2h)-pyrimidinecarboxamide, 5-fluoro-3,4-dichlo",PXXNTSRWKSCFCK-UHFFFAOYSA-N,FC1=CN(C(=O)NC1=O)C(=O)Nc2ccccc2,-1.6184
B-3016,t-butylphenyl diphenyl phosphate,ULGAVXUJJBOWOD-UHFFFAOYSA-N,CC(C)(C)c1ccc(O[P](=O)(Oc2ccccc2)Oc3ccccc3)cc1,-5.0774
B-3017,tolclofos-methyl,OBZIQQJJIKNWNO-UHFFFAOYSA-N,CO[P](=S)(OC)Oc1c(Cl)cc(C)cc1Cl,-5.4374
B-3018,isomethiozin,MZTLOILRKLUURT-NTUHNPAUSA-N,CSC1=NN=C(C(=O)N1\N=C\C(C)C)C(C)(C)C,-4.4288
B-3019,"3,4,5-trichloro-2-methoxyphenol",RKEHLKXRUVUBJN-UHFFFAOYSA-N,COc1c(O)cc(Cl)c(Cl)c1Cl,-2.8712
B-3020,"2,3,4,7,8-pentachlorodibenzofuran",OGBQILNBLMPPDP-UHFFFAOYSA-N,Clc1cc2oc3c(Cl)c(Cl)c(Cl)cc3c2cc1Cl,-9.1609
B-3021,"1(3h)-isobenzofuranone, 6-amino-",ZIJZDNKZJZUROE-UHFFFAOYSA-N,Nc1ccc2COC(=O)c2c1,-2.0414
B-3022,pyroquilon,XRJLAOUDSILTFT-UHFFFAOYSA-N,O=C1CCc2cccc3CCN1c23,-1.6365
B-3023,phenisopham,PWEOEHNGYFXZLI-UHFFFAOYSA-N,CCN(C(=O)Oc1cccc(NC(=O)OC(C)C)c1)c2ccccc2,-5.0574
B-3024,fluotrimazole,LXMQMMSGERCRSU-UHFFFAOYSA-N,FC(F)(F)c1cccc(c1)C(n2cncn2)(c3ccccc3)c4ccccc4,-8.403
B-3025,"acetamide, n-[2-(benzoyloxy)ethyl]-n-methyl-",XPLCQMPBJPQJNU-UHFFFAOYSA-N,CN(CCOC(=O)c1ccccc1)C(C)=O,-0.8494
B-3026,furalaxyl,CIEXPHRYOLIQQD-UHFFFAOYSA-N,COC(=O)C(C)N(C(=O)c1occc1)c2c(C)cccc2C,-3.1173
B-3030,"benzenamine, 4-methyl-2-[(4-methylphenyl)azo]-",BBVUAJTZGSWJDD-UHFFFAOYSA-N,Cc1ccc(cc1)N=Nc2cc(C)ccc2N,-3.9031
B-3031,"2,4(3h,5h)-pyrimidinedione, 6-amino-5,5-diethyl-",SSNMPSGFZBQHKA-UHFFFAOYSA-N,CCC1(CC)C(=NC(=O)NC1=O)N,-1.3967
B-3032,"1(3h)-isobenzofuranone, 3-methyl-6-nitro-",DJBQBNLHDSCAJI-UHFFFAOYSA-N,CC1OC(=O)c2cc(ccc12)[N+]([O-])=O,-2.6157
B-3033,"4'-(Bis(2-hydroxyethyl)amino)-2,6-dichloro-2'-methyl-4-nitroazobenzene",VJCRGIYTUNCUJU-UHFFFAOYSA-N,Cc1cc(ccc1N=Nc2c(Cl)cc(cc2Cl)[N+]([O-])=O)N(CCO)CCO,-5.9592
B-3034,"benzenesulfonic acid, 3-amino-2,4,6-tribromo-",UDUMKWWIWPPSHW-UHFFFAOYSA-N,Nc1c(Br)cc(Br)c(c1Br)[S](O)(=O)=O,-0.4888
B-3035,flamprop,YQVMVCCFZCMYQB-UHFFFAOYSA-N,CC(N(c1ccc(F)c(Cl)c1)C(=O)c2ccccc2)C(O)=O,-4.2474
B-3036,ofurace,OWDLFBLNMPCXSD-UHFFFAOYSA-N,Cc1cccc(C)c1N(C2CCOC2=O)C(=O)CCl,-3.2855
B-3037,ranimustine,AHHFEZNOXOZZQA-UHFFFAOYSA-N,COC1OC(CNC(=O)N(CCCl)N=O)C(O)C(O)C1O,-1.5613
B-3038,"2,4,4'-trichlorodiphenyl ether",PIORTDHJOLELKR-UHFFFAOYSA-N,Clc1ccc(Oc2ccc(Cl)cc2Cl)cc1,-6.2196
B-3039,"phosphoric acid, dimethyl propyl ester",GMSOIBLTSDGVEX-UHFFFAOYSA-N,CCCO[P](=O)(OC)OC,0.4733
B-3041,"biphenyl, 2,2',3,4,4',6'-hexachloro-",XBBRGUHRZBZMPP-UHFFFAOYSA-N,Clc1cc(Cl)c(c(Cl)c1)c2ccc(Cl)c(Cl)c2Cl,-8.2399
B-3042,5-methyl-hex-3-enoic acid,CIBMDQOEVWDTDT-UHFFFAOYSA-N,CC(C)C=CCC(O)=O,-1.1487
B-3043,thiodicarb,XDOTVMNBCQVZKG-MKICQXMISA-N,CSC(/C)=N/OC(=O)N(C)SN(C)C(=O)O\N=C(/C)SC,-4.0055
B-3044,fluridone,YWBVHLJPRPCRSD-UHFFFAOYSA-N,CN1C=C(c2ccccc2)C(=O)C(=C1)c3cccc(c3)C(F)(F)F,-4.4384
B-3045,"2-propenoic acid, 3-(2-ethoxyphenyl)-, (e)-",UXTDCJJEJZCEBF-BQYQJAHWSA-M,CCOc1ccccc1\C=C\C([O-])=O,-3.3248
B-3046,"1,1'-biphenyl, 2,2',4,5',6-pentachloro-",PQHZWWBJPCNNGI-UHFFFAOYSA-N,Clc1ccc(Cl)c(c1)c2c(Cl)cc(Cl)cc2Cl,-7.47
B-3047,"1,1'-biphenyl, 2,2',4,4',5,6'-hexachloro-",QXZHEJWDLVUFFB-UHFFFAOYSA-N,Clc1cc(Cl)c(c(Cl)c1)c2cc(Cl)c(Cl)cc2Cl,-8.1199
B-3048,"1,1'-biphenyl, 2,2',3,4,4',5,6'-heptachloro-",RXRLRYZUMSYVLS-UHFFFAOYSA-N,Clc1cc(Cl)c(c(Cl)c1)c2cc(Cl)c(Cl)c(Cl)c2Cl,-8.68
B-3049,"propane, 2,2-bis(methylsulfonyl)-",YBSYYLRYPMFRNL-UHFFFAOYSA-N,CC(C)([S](C)(=O)=O)[S](C)(=O)=O,-1.4504
B-3050,"2(1h)-pyridinone, 5-iodo-1-methyl-",RTQZQBKEGAUQLR-UHFFFAOYSA-N,CN1C=C(I)C=CC1=O,-0.0094
B-3051,iopamidol,XQZXYNRDCRIARQ-LURJTMIESA-N,C[C@H](O)C(=O)Nc1c(I)c(C(=O)NC(CO)CO)c(I)c(C(=O)NC(CO)CO)c1I,-0.7443
B-3052,fenarimol,NHOWDZOIZKMVAI-UHFFFAOYSA-N,OC(c1ccc(Cl)cc1)(c2cncnc2)c3ccccc3Cl,-4.374
B-3053,azaconazol,AKNQMEBLVAMSNZ-UHFFFAOYSA-N,Clc1ccc(c(Cl)c1)C2(Cn3cncn3)OCCO2,-3.0031
B-3054,propiconazole,STJLVHWMYQXCPB-UHFFFAOYSA-N,CCCC1COC(Cn2cncn2)(O1)c3ccc(Cl)cc3Cl,-3.4929
B-3055,"1-[[2-(2,4-dichlorophenyl)-4-ethyl-1,3-dioxolan-",DWRKFAJEBUWTQM-UHFFFAOYSA-N,CCC1COC(Cn2cncn2)(O1)c3ccc(Cl)cc3Cl,-3.613
B-3056,"2,3',4,6-tetrachlorobiphenyl",CKUBKYSLNCKBOI-UHFFFAOYSA-N,Clc1cccc(c1)c2c(Cl)cc(Cl)cc2Cl,-7.1547
B-3057,"1,1'-biphenyl, 2,2',3,4',6'-pentachloro-",GOFFZTAPOOICFT-UHFFFAOYSA-N,Clc1cc(Cl)c(c(Cl)c1)c2cccc(Cl)c2Cl,-7.3999
B-3058,"phosphorothioic acid, o-(dichloro(methylthio)phe",SBLPWPLKGFWLKK-UHFFFAOYSA-N,CCO[P](=S)(OCC)Oc1cc(Cl)c(Cl)c(SC)c1,-6.0807
B-3059,"o-diselenane-3,6-dicarboxylic acid, trans-(+)-",JAGJLCZKVMJJDA-QWWZWVQMSA-N,OC(=O)[C@H]1CC[C@@H]([Se][Se]1)C(O)=O,-2.1053
B-3060,"benzeneacetic acid, .alpha.-(ethylthio)-",MMJGSXQXUWECJL-UHFFFAOYSA-N,CCSC(C(O)=O)c1ccccc1,-1.5686
B-3062,1h-imidazole-4-sulfonic acid,BONRIQWDXHCVOH-UHFFFAOYSA-N,O[S](=O)(=O)c1c[nH]cn1,0.1304
B-3063,"glycine, n-[n-(2-bromo-1-oxopropyl)glycyl]-, (.+",XDBDRCFCQAKVQM-UHFFFAOYSA-N,CC(Br)C(=O)NCC(=O)NCC(O)=O,-0.9642
B-3065,"thiourea, cyano-",SSGODMHQNTWPOX-UHFFFAOYSA-N,NC(=S)NC#N,-0.0049
B-3066,"2',3,4-trichlorodiphenyl ether",VBNJGYOQZAENPO-UHFFFAOYSA-N,Clc1ccc(Oc2ccccc2Cl)cc1Cl,-5.199
B-3067,"propanoic acid, 2-(1-oxopropoxy)-, methyl ester",QCHIRICIDKIMSH-UHFFFAOYSA-N,CCC(=O)OC(C)C(=O)OC,-0.8622
B-3068,dimepiperate,BWUPSGJXXPATLU-UHFFFAOYSA-N,CC(C)(SC(=O)N1CCCCC1)c2ccccc2,-4.1196
B-3069,"1h-imidazole, 2-(2-methylpropyl)-",RFXJLECGYGFJCI-UHFFFAOYSA-N,CC(C)Cc1[nH]ccn1,-1.0488
B-3070,tifatol,YUAUPYJCVKNAEC-UHFFFAOYSA-N,CN1C=CSC1=Nc2ccc(C)cc2C,-3.163
B-3071,"carbamimidothioic acid, trimethyl-, methyl ester",CQROVVJXIYLISJ-UHFFFAOYSA-N,CSC(=NC)N(C)C,-0.4401
B-3072,"2,2',3,3',4,6-hexachlorobiphenyl",WDLTVNWWEZJMPF-UHFFFAOYSA-N,Clc1cccc(c1Cl)c2c(Cl)cc(Cl)c(Cl)c2Cl,-8.48
B-3073,"benzamide, 2,5-dihydroxy-n-(2-hydroxyethyl)-",YNCOLLPSNIHBGO-UHFFFAOYSA-N,OCCNC(=O)c1cc(O)ccc1O,-0.5436
B-3074,"1,3,6-naphthalenetrisulfonic acid, 4-amino-",SWHYBBGFRAEKOS-UHFFFAOYSA-N,Nc1c2cc(ccc2c(cc1[S](O)(=O)=O)[S](O)(=O)=O)[S](O)(=O)=O,-0.3188
B-3075,"benzenemethanol, 2,3(or 3,4)-dichloro-, methyl c",SESJCOBCXSACPH-UHFFFAOYSA-N,CNC(=O)OCc1cccc(Cl)c1Cl,-3.1389
B-3077,"urea, n-butyl-n-phenyl",GOGYHVOOMHFPAC-UHFFFAOYSA-N,CCCCN(C(N)=O)c1ccccc1,-1.2971
B-3078,"2,2',4,6-tetrachlorobiphenyl",VLLVVZDKBSYMCG-UHFFFAOYSA-N,Clc1cc(Cl)c(c(Cl)c1)c2ccccc2Cl,-6.65
B-3079,fenothiocarb,HMIBKHHNXANVHR-UHFFFAOYSA-N,CN(C)C(=O)SCCCCOc1ccccc1,-3.9266
B-3080,diclomezine,UWQMKVBQKFHLCE-UHFFFAOYSA-N,Cc1c(Cl)cc(cc1Cl)C2=NNC(=O)C=C2,-5.5375
B-3082,"benzeneacetonitrile, alpha-((cyanomethoxy)imino)",PYKLUAIDKVVEOS-JLHYYAGUSA-N,N#CCO/N=C(C#N)/c1ccccc1,-3.2899
B-3083,"5-pyrimidinemethanol, .alpha.-(2-chlorophenyl)-.",SAPGTCDSBGMXCD-UHFFFAOYSA-N,OC(c1ccc(F)cc1)(c2cncnc2)c3ccccc3Cl,-4.083
B-3084,"3,4,4'-trichlorodiphenyl ether",FTZDEZOARSJHGU-UHFFFAOYSA-N,Clc1ccc(Oc2ccc(Cl)c(Cl)c2)cc1,-5.6603
B-3085,"pentanamide, 2-bromo-2-propyl-",KORNHGGSVGTRLI-UHFFFAOYSA-N,CCCC(Br)(CCC)C(N)=O,-1.8281
B-3086,flamprop-m-methyl,RBNIGDFIUWJJEV-LLVKDONJSA-N,COC(=O)[C@@H](C)N(C(=O)c1ccccc1)c2ccc(F)c(Cl)c2,-4.3219
B-3087,flamprop-m-isopropyl,IKVXBIIHQGXQRQ-CYBMUJFWSA-N,CC(C)OC(=O)[C@@H](C)N(C(=O)c1ccccc1)c2ccc(F)c(Cl)c2,-4.4817
B-3088,diofenolan,ZDOOQPFIGYHZFV-MSOLQXFVSA-N,CC[C@H]1OC[C@@H](COc2ccc(Oc3ccccc3)cc2)O1,-4.7874
B-3089,"1h-purine-2,6-dione, 3,7-dihydro-3,7-dimethyl-1-",XJKSERUTELYNMR-UHFFFAOYSA-N,CCCN1C(=O)N(C)c2ncn(C)c2C1=O,-1.2082
B-3090,"ethanamine, n,2-dichloro-n-(2-chloroethyl)-",HEMZNEGKTOHOHW-UHFFFAOYSA-N,ClCCN(Cl)CCCl,-1.9203
B-3091,cycloprothrin,CGTWCAVZZBLHQH-UHFFFAOYSA-N,CCOc1ccc(cc1)C2(CC2(Cl)Cl)C(=O)OC(C#N)c3cccc(Oc4ccccc4)c3,-6.7243
B-3092,"1-piperazinecarboxylic acid, 4,4'-methylenebis-,",UOCUDGZQFFDOMM-UHFFFAOYSA-N,CCOC(=O)N1CCN(CC1)CN2CCN(CC2)C(=O)OCC,-0.8443
B-3093,"1(2h)-pyrimidinecarboxamide, n-butyl-5-fluoro-3,",PVSNDBKXSKXPHM-UHFFFAOYSA-N,CCCCNC(=O)N1C=C(F)C(=O)NC1=O,-2.4464
B-3094,anilofos,NXQDBZGWYSEGFL-UHFFFAOYSA-N,CO[P](=S)(OC)SCC(=O)N(C(C)C)c1ccc(Cl)cc1,-4.4321
B-3096,glycoursodeoxycholic acid,GHCZAUBVMUEKKP-NHIHLBCISA-N,C[C@H](CCC(=O)NCC(O)=O)[C@H]1CCC2C3[C@@H](O)C[C@@H]4C[C@H](O)CC[C@]4(C)C3CC[C@]12C,-5.5225
B-3097,ethiozin,ADZSGNDOZREKJK-UHFFFAOYSA-N,CCSC1=NN=C(C(=O)N1N)C(C)(C)C,-2.7353
B-3098,triflumuron,XAIPTRIXGHTTNT-UHFFFAOYSA-N,FC(F)(F)Oc1ccc(NC(=O)NC(=O)c2ccccc2Cl)cc1,-7.1568
B-3099,"acetamide, 2-(benzoyloxy)-",HBEWADIWKZVJSD-UHFFFAOYSA-N,NC(=O)COC(=O)c1ccccc1,-1.6405
B-3100,"acetamide, 2-(benzoyloxy)-n-ethyl-",FPWKJKWOCSENMO-UHFFFAOYSA-N,CCNC(=O)COC(=O)c1ccccc1,-2.2373
B-3101,"benzoic acid, 2-(diethylamino)-2-oxoethyl ester",MTAAHMQCSJMGHI-UHFFFAOYSA-N,CCN(CC)C(=O)COC(=O)c1ccccc1,-2.0706
B-3102,"dl-alanine, n-ethyl-",DATPFTPVGIHCCM-UHFFFAOYSA-N,CCNC(C)C(O)=O,0.6522
B-3103,"2,4(1h,3h)-pyrimidinedione, 5-aminodihydro-1,3-d",CAMGETFHWUKWEO-UHFFFAOYSA-N,CN1C(=O)C(N)C(=S)N(C)C1=O,-1.117
B-3104,"2,2',3,4,4'-pentachlorobiphenyl",LACXVZHAJMVESG-UHFFFAOYSA-N,Clc1ccc(c(Cl)c1)c2ccc(Cl)c(Cl)c2Cl,-7.62
B-3105,4(1h)-pteridinethione,GTLUQRDIJWHQGF-UHFFFAOYSA-N,S=C1N=CNc2nccnc12,-2.6471
B-3106,"1,3-propanediol, 2-nitro-1-phenyl-, diacetate (e",AYBALPYBYZFKDS-UHFFFAOYSA-N,CC(=O)OCC(C(OC(C)=O)c1ccccc1)[N+]([O-])=O,-3.972
B-3107,fenitropan,AYBALPYBYZFKDS-OLZOCXBDSA-N,CC(=O)OC[C@H]([C@@H](OC(C)=O)c1ccccc1)[N+]([O-])=O,-3.972
B-3109,esfenvalerate,NYPJDWWKZLNGGM-BJKOFHAPSA-N,CC(C)[C@@H](C(=O)O[C@@H](C#N)c1cccc(Oc2ccccc2)c1)c3ccc(Cl)cc3,-8.3221
B-3110,penconazole,WKBPZYKAUNRMKP-UHFFFAOYSA-N,CCCC(Cn1cncn1)c2ccc(Cl)cc2Cl,-3.5903
B-3111,flutolanil,PTCGDEVVHUXTMP-UHFFFAOYSA-N,CC(C)Oc1cccc(NC(=O)c2ccccc2C(F)(F)F)c1,-4.6947
B-3112,fenoxaprop ethyl,PQKBPHSEKWERTG-UHFFFAOYSA-N,CCOC(=O)C(C)Oc1ccc(Oc2oc3cc(Cl)ccc3n2)cc1,-5.6042
B-3113,"3,3',4-trichlorodiphenyl ether",BUKLLCIUMZELOH-UHFFFAOYSA-N,Clc1cccc(Oc2ccc(Cl)c(Cl)c2)c1,-5.437
B-3114,tralomethrin,YWSCPYYRJXKUDB-KAKFPZCNSA-N,CC1(C)[C@@H](C(Br)C(Br)(Br)Br)[C@H]1C(=O)O[C@H](C#N)c2cccc(Oc3ccccc3)c2,-6.9197
B-3115,"pentanamide, n-(aminocarbonyl)-2-bromo-",APOQXKXBZDMITN-UHFFFAOYSA-N,CCCC(Br)C(=O)NC(N)=O,-1.4278
B-3116,"4-cycloocten-1-amine, n,n-dimethyl-",BRRJALXGYRSYAI-UHFFFAOYSA-N,CN(C)C1CCCC=CCC1,-1.6004
B-3117,methasulfocarb,IXJOSTZEBSTPAG-UHFFFAOYSA-N,CNC(=O)Sc1ccc(O[S](C)(=O)=O)cc1,-2.7359
B-3118,"cyclopentanecarbonitrile, 1-methyl-2-oxo-",KJRMGWZKDHKBCY-UHFFFAOYSA-N,CC1(CCCC1=O)C#N,0.9095
B-3119,metazachlor,STEPQTYSZVCJPV-UHFFFAOYSA-N,Cc1cccc(C)c1N(Cn2cccn2)C(=O)CCl,-2.8102
B-3120,"urea, (1,1-diethylpropyl)-",KTVHWABXSLMMCT-UHFFFAOYSA-N,CCC(CC)(CC)NC(N)=O,-1.8191
B-3121,fenpropimorph,RYAUSSKQMZRMAI-UHFFFAOYSA-N,CC(CN1CC(C)OC(C)C1)Cc2ccc(cc2)C(C)(C)C,-2.4821
B-3122,alpha-cypermethrin,KAATUXNTWXVJKI-DXCJPMOASA-N,CC1(C)[C@@H](C=C(Cl)Cl)[C@H]1C(=O)OC(C#N)c2cccc(Oc3ccccc3)c2,-7.6194
B-3123,hydramethylnon,IQVNEKKDSLOHHK-FNCQTZNRSA-N,CC1(C)CNC(=NC1)N\N=C(/C=C/c2ccc(cc2)C(F)(F)F)\C=C\c3ccc(cc3)C(F)(F)F,-7.916
B-3124,"dibenzofuran, 1,2,3,4,6,7,8-heptachloro-",WDMKCPIVJOGHBF-UHFFFAOYSA-N,Clc1cc2c(oc3c(Cl)c(Cl)c(Cl)c(Cl)c23)c(Cl)c1Cl,-11.4817
B-3125,fenpropimorph,RYAUSSKQMZRMAI-ALOPSCKCSA-N,CC(CN1C[C@H](C)O[C@H](C)C1)Cc2ccc(cc2)C(C)(C)C,-4.8487
B-3126,"dibenzofuran, 2,3,7,8-tetrabromo-",HCSRVQXNLHZQNM-UHFFFAOYSA-N,Brc1cc2oc3cc(Br)c(Br)cc3c2cc1Br,-6.8395
B-3127,prochloraz,TVLSRXXIMLFWEO-UHFFFAOYSA-N,CCCN(CCOc1c(Cl)cc(Cl)cc1Cl)C(=O)n2ccnc2,-4.0445
B-3128,"glycine, n-(aminocarbonyl)-n-nitroso-, ethyl est",RFAPTJJTVLWLJY-UHFFFAOYSA-N,CCOC(=O)CN(N=O)C(N)=O,0.7566
B-3129,"2,2',4,5,5'-pentabromobiphenyl",OELBLPCWLAWABI-UHFFFAOYSA-N,Brc1ccc(Br)c(c1)c2cc(Br)c(Br)cc2Br,-9.7256
B-3131,"1,7-naphthyridin-8(7h)-one",VTUQISVBYRDYAW-UHFFFAOYSA-N,O=C1NC=Cc2cccnc12,-1.1428
B-3132,azafenidin,XOEMATDHVZOBSG-UHFFFAOYSA-N,Clc1cc(Cl)c(cc1OCC#C)N2N=C3CCCCN3C2=O,-4.3251
B-3133,cyhalothrin,ZXQYGBMAQZUVMI-UNOMPAQXSA-N,CC1(C)C(\C=C(/Cl)C(F)(F)F)C1C(=O)OC(C#N)c2cccc(Oc3ccccc3)c2,-7.9541
B-3135,forchlorfenuron,GPXLRLUVLMHHIK-UHFFFAOYSA-N,Clc1cc(NC(=O)Nc2ccccc2)ccn1,-3.8028
B-3136,"2,2',4,6'-tetrachlorobiphenyl",WVHNUGRFECMVLQ-UHFFFAOYSA-N,Clc1ccc(c(Cl)c1)c2c(Cl)cccc2Cl,-6.65
B-3138,"1,1'-biphenyl, 2,2',3,4',5-pentachloro-",SUOAMBOBSWRMNQ-UHFFFAOYSA-N,Clc1ccc(c(Cl)c1)c2cc(Cl)cc(Cl)c2Cl,-7.82
B-3139,"1,1'-biphenyl, 2,3,3',5',6-pentachloro-",YDGFMDPEJCJZEV-UHFFFAOYSA-N,Clc1cc(Cl)cc(c1)c2c(Cl)ccc(Cl)c2Cl,-7.95
B-3140,"1,1'-biphenyl, 2,3,4',5,6-pentachloro-",ZDDZPDTVCZLFFC-UHFFFAOYSA-N,Clc1ccc(cc1)c2c(Cl)c(Cl)cc(Cl)c2Cl,-7.88
B-3141,"2,3',4,5,5'-pentachlorobiphenyl",ZLGYJAIAVPVCNF-UHFFFAOYSA-N,Clc1cc(Cl)cc(c1)c2cc(Cl)c(Cl)cc2Cl,-7.47
B-3142,"1,1'-biphenyl, 2,2',3,4,5',6-hexachloro-",CXXRQFOKRZJAJA-UHFFFAOYSA-N,Clc1ccc(Cl)c(c1)c2c(Cl)cc(Cl)c(Cl)c2Cl,-8.01
B-3143,"2,2',3,4,5,6'-hexachlorobiphenyl",UQPQKLGBEKEZBV-UHFFFAOYSA-N,Clc1cc(c(Cl)c(Cl)c1Cl)c2c(Cl)cccc2Cl,-8.13
B-3144,"2,2',3,3',4,5,5',6-octachlorobiphenyl",PJHBSPRZHUOIAS-UHFFFAOYSA-N,Clc1cc(Cl)c(Cl)c(c1)c2c(Cl)c(Cl)c(Cl)c(Cl)c2Cl,-9.42
B-3145,proglinazine ethyl,QQADVTSTCZBBOE-UHFFFAOYSA-N,CCOC(=O)CNc1nc(Cl)nc(NC(C)C)n1,-2.5622
B-3146,"guanidine, n,n'-bis(4-methoxyphenyl)-",BIJOTHRFGRTFPM-UHFFFAOYSA-N,COc1ccc(NC(=N)Nc2ccc(OC)cc2)cc1,-2.7345
B-3148,benfuresate,QGQSRQPXXMTJCM-UHFFFAOYSA-N,CC[S](=O)(=O)Oc1ccc2OCC(C)(C)c2c1,-2.9921
B-3149,"acetamide, n-acetyl-2-(benzoyloxy)-",NZDAAPUTURAWII-UHFFFAOYSA-N,CC(=O)NC(=O)COC(=O)c1ccccc1,-2.4003
B-3151,"2,2',4-trichlorodiphenyl ether",YXMNUPKWUMIZAV-UHFFFAOYSA-N,Clc1ccc(Oc2ccccc2Cl)c(Cl)c1,-4.9499
B-3152,buprofezin,PRLVTUNWOQKEAI-UHFFFAOYSA-N,CC(C)N1C(=O)N(CSC1=NC(C)(C)C)c2ccccc2,-5.5307
B-3153,fluroxypyr,MEFQWPUMEMWTJP-UHFFFAOYSA-N,Nc1c(Cl)c(F)nc(OCC(O)=O)c1Cl,-3.4475
B-3154,fluvalinate,INISTDXBRIBGOC-UHFFFAOYSA-N,CC(C)C(Nc1ccc(cc1Cl)C(F)(F)F)C(=O)OC(C#N)c2cccc(Oc3ccccc3)c2,-8.0025
B-3155,"ethanol, 2-bromo-2,2-dichloro-",YZTOJSCFQRPGLD-UHFFFAOYSA-N,OCC(Cl)(Cl)Br,-0.4424
B-3156,cyprofuram,KRZUZYJEQBXUIN-UHFFFAOYSA-N,Clc1cccc(c1)N(C2CCOC2=O)C(=O)C3CC3,-2.6878
B-3157,"2,2,4-pentanetricarboxylic acid",GKJYHTGGXDEYSU-UHFFFAOYSA-N,CC(CC(C)(C(O)=O)C(O)=O)C(O)=O,-0.1086
B-3158,"2-furancarboxylic acid, 3,4-dichloro-",UIBLWJMAOKDSRF-UHFFFAOYSA-N,OC(=O)c1occ(Cl)c1Cl,-1.8263
B-3159,"1,1'-biphenyl, 2,3,3',4',5,5',6-heptachloro-",ZUTDUGMNROUBOX-UHFFFAOYSA-N,Clc1cc(Cl)cc(c1)c2c(Cl)c(Cl)c(Cl)c(Cl)c2Cl,-9.1
B-3160,haloxyfop-methyl,MFSWTRQUCLNFOM-UHFFFAOYSA-N,COC(=O)C(C)Oc1ccc(Oc2ncc(cc2Cl)C(F)(F)F)cc1,-4.6064
B-3161,fluazifop - butyl,VAIZTNZGPYBOGF-UHFFFAOYSA-N,CCCCOC(=O)C(C)Oc1ccc(Oc2ccc(cn2)C(F)(F)F)cc1,-5.5836
B-3163,"benzoic acid, 2-[4,5-dihydro-4-methyl-4-(1-methy",TYIHVCIQMMTVHE-UHFFFAOYSA-N,COC(=O)c1cc(C)ccc1C2=NC(C)(C(C)C)C(=O)N2,-2.3262
B-3164,flucythrinate,GBIHOLCMZGAKNG-UHFFFAOYSA-N,CC(C)C(C(=O)OC(C#N)c1cccc(Oc2ccccc2)c1)c3ccc(OC(F)F)cc3,-6.8765
B-3165,"3-pyridinecarboxylic acid, octyl ester",TYBQVEHLLOHMLT-UHFFFAOYSA-N,CCCCCCCCOC(=O)c1cccnc1,-3.0929
B-3168,"2,2'4,5-tetrachlorobiphenyl",XBTHILIDLBPRPM-UHFFFAOYSA-N,Clc1ccccc1c2cc(Cl)c(Cl)cc2Cl,-7.2505
B-3169,"2,3',4',5-tetrachlorobiphenyl",QILUYCYPNYWMIL-UHFFFAOYSA-N,Clc1ccccc1c2cc(Cl)c(Cl)c(Cl)c2,-6.9069
B-3170,"2',3,4,5,5'-pentachlorobiphenyl",PIVBPZFQXKMHBD-UHFFFAOYSA-N,Clc1ccc(Cl)c(c1)c2cc(Cl)c(Cl)c(Cl)c2,-7.3149
B-3171,novantrone,ZAHQPTJLOCWVPG-UHFFFAOYSA-N,[H+].[H+].[Cl-].[Cl-].OCCNCCNc1ccc(NCCNCCO)c2C(=O)c3c(O)ccc(O)c3C(=O)c12,-1.8388
B-3172,"dl-alanine, n-[(ethylthio)thioxomethyl]-",WCIZDTOYENGUEG-UHFFFAOYSA-N,CCSC(=S)NC(C)C(O)=O,-1.2343
B-3173,"1,3,2-oxazaphosphepin-2(3h)-amine, n,n-bis(2-chl",VTLAANPLIFGAFQ-UHFFFAOYSA-N,ClCCN(CCCl)[P]1(=O)NCCCCO1,-0.9624
B-3174,"benzenesulfonamide, 4-amino-n-(5-propyl-1,3,4-th",UAFUDNOKRZAGCJ-UHFFFAOYSA-N,CCCc1sc(N[S](=O)(=O)c2ccc(N)cc2)nn1,-3.3075
B-3175,fenoxaprop-ethyl,PQKBPHSEKWERTG-LLVKDONJSA-N,CCOC(=O)[C@@H](C)Oc1ccc(Oc2oc3cc(Cl)ccc3n2)cc1,-5.6042
B-3176,pyrazoxyfen,FKERUJTUOYLBKB-UHFFFAOYSA-N,Cn1nc(C)c(C(=O)c2ccc(Cl)cc2Cl)c1OCC(=O)c3ccccc3,-2.6514
B-3177,benalaxyl,CJPQIRJHIZUAQP-UHFFFAOYSA-N,COC(=O)C(C)N(C(=O)Cc1ccccc1)c2c(C)cccc2C,-3.9442
B-3178,"cyclopropanecarboxylic acid, 3-(2,2-dichloroethe",KAATUXNTWXVJKI-UHFFFAOYSA-N,CC1(C)C(C=C(Cl)Cl)C1C(=O)OC(C#N)c2cccc(Oc3ccccc3)c2,-6.5587
B-3179,"propanediamide, 2-(hydroxyimino)-",NIGAUKVBFJZEHV-UHFFFAOYSA-N,NC(=O)C(=NO)C(N)=O,-0.0384
B-3180,"2-propenoic acid, 2,3,3-tribromo-",UKFXMSBXHCEXIK-UHFFFAOYSA-N,OC(=O)C(Br)=C(Br)Br,-1.3593
B-3181,"2-propenoic acid, 2,3-dibromo-3-iodo-",AORLFLUMZXGBEY-UHFFFAOYSA-N,OC(=O)C(Br)=C(Br)I,-1.0197
B-3182,"ethanesulfonamide, n-(ethylsulfonyl)-",IPVBROHEYXPTBX-UHFFFAOYSA-N,CC[S](=O)(=O)N[S](=O)(=O)CC,0.5413
B-3185,fenoxycarb,HJUFTIJOISQSKQ-UHFFFAOYSA-N,CCOC(=O)NCCOc1ccc(Oc2ccccc2)cc1,-4.7009
B-3186,azo dye n5,ARSKJXYLLONUAJ-UHFFFAOYSA-N,CCCCN(CCOC(C)=O)c1ccc(N=Nc2c(cc(cc2C#N)[N+]([O-])=O)C#N)c(C)c1,-8.8809
B-3187,flurazole,MKQSWTQPLLCSOB-UHFFFAOYSA-N,FC(F)(F)c1nc(Cl)sc1C(=O)OCc2ccccc2,-5.8085
B-3188,"1,2-benzenediol, 4-(1-propenyl)-",MDXYNRAMDATLBT-UHFFFAOYSA-N,CC=Cc1ccc(O)c(O)c1,-1.3505
B-3189,imiprothrin,VPRAQYXPZIFIOH-UHFFFAOYSA-N,CC(C)=CC1C(C(=O)OCN2C(=O)CN(CC#C)C2=O)C1(C)C,-3.5321
B-3190,mefenacet,XIGAUIHYSDTJHW-UHFFFAOYSA-N,CN(C(=O)COc1sc2ccccc2n1)c3ccccc3,-4.8727
B-3191,"2,3',4,5-tetrachlorobiphenyl",LQEGJNOKOZHBBZ-UHFFFAOYSA-N,Clc1cccc(c1)c2cc(Cl)c(Cl)cc2Cl,-7.1299
B-3192,"1,1'-biphenyl, 2,2',3,5,6-pentachloro-",BMXRLHMJGHJGLR-UHFFFAOYSA-N,Clc1ccccc1c2c(Cl)c(Cl)cc(Cl)c2Cl,-7.3999
B-3193,"1,1'-biphenyl, 2,2',3,4,6'-pentachloro-",GLOOIONSKMZYQZ-UHFFFAOYSA-N,Clc1ccc(c(Cl)c1Cl)c2c(Cl)cccc2Cl,-6.7798
B-3194,"propanoic acid, 2-hydroxy-, 2-(hexyloxy)-1-methy",GVMIXAYWPARWDD-UHFFFAOYSA-N,CCCCCCOC(=O)C(C)OC(=O)C(C)O,-2.4884
B-3195,"2-pyrimidinecarboxamide, 4,6-dimethyl-",GQSYNOBFTDVBDM-UHFFFAOYSA-N,Cc1cc(C)nc(n1)C(N)=O,0.1216
B-3196,ketanserin,FPCCSQOGAWCVBH-UHFFFAOYSA-N,Fc1ccc(cc1)C(=O)C2CCN(CC2)CCN3C(=O)Nc4ccccc4C3=O,-4.5971
B-3197,aclonifen,DDBMQDADIHOWIC-UHFFFAOYSA-N,Nc1c(Cl)c(Oc2ccccc2)ccc1[N+]([O-])=O,-5.0248
B-3198,"hydrazinecarboxamide, n-(4-ethoxyphenyl)-",ZKSWEXOGEZLKIX-UHFFFAOYSA-N,CCOc1ccc(NC(=O)NN)cc1,-1.6471
B-3199,clofentezine,UXADOQPNKNTIHB-UHFFFAOYSA-N,Clc1ccccc1c2nnc(nn2)c3ccccc3Cl,-5.4817