ID,Name,InChIKey,SMILES,Solubility
A-4926,N-(1-benzylpiperidin-4-yl)-N-phenylpropanamide,POQDXIFVWVZVML-UHFFFAOYSA-N,CCC(=O)N(C1CCN(CC1)Cc2ccccc2)c3ccccc3,-3.4150433898
A-4930,"2-tert-butyl-4,6-dimethylphenol",OPLCSTZDXXUYDU-UHFFFAOYSA-N,Cc1cc(C)c(O)c(c1)C(C)(C)C,-3.1719091991
A-4931,"4-methyl-2,3-dihydro-1H-1,3-benzodiazole-2-thione; 5-methyl-2,3-dihydro-1H-1,3-benzodiazole-2-thione",UDQCDDZBBZNIFA-UHFFFAOYSA-N,Cc1cccc2NC(=S)Nc12,-3.13627918
A-4932,pentasodium decanoic acid dodecanoic acid 2-(decanoyloxy)propanoate 2-(dodecanoyloxy)propanoate 2-hydroxypropanoate decanoate dodecanoate,UZWXBVXWDIJVKW-UHFFFAOYSA-I,[Na+].[Na+].[Na+].[Na+].[Na+].CCCCCCCCCCCC(O)=O.CCCCCCCCCCCC([O-])=O.CCCCCCCCCCCC(=O)OC(C)C([O-])=O.CCCCCCCCCC(O)=O.CCCCCCCCCC([O-])=O.CCCCCCCCCC(=O)OC(C)C([O-])=O.CC(O)C([O-])=O,-4.0857316668
A-4933,undecanal,KMPQYAYAQWNLME-UHFFFAOYSA-N,CCCCCCCCCCC=O,-3.1520232011
A-4934,"1,2-dichloro-4-(trifluoromethyl)benzene",XILPLWOGHPSJBK-UHFFFAOYSA-N,FC(F)(F)c1ccc(Cl)c(Cl)c1,-3.2679824907
A-4939,1-(4-{2-[4-(2-hydroxypropoxy)phenyl]propan-2-yl}phenoxy)propan-2-ol,MIUUNYUUEFHIHM-UHFFFAOYSA-N,CC(O)COc1ccc(cc1)C(C)(C)c2ccc(OCC(C)O)cc2,-3.499700952
A-4941,2-bromobutane,UPSXAPQYNGXVBF-UHFFFAOYSA-N,CCC(C)Br,-3.1114780979
A-4942,2-methylpropyl 2-phenylacetate,RJASFPFZACBKBE-UHFFFAOYSA-N,CC(C)COC(=O)Cc1ccccc1,-3.2710471955
A-4943,"17-hydroxy-17-(3-hydroxyprop-1-yn-1-yl)-10,13-dimethyl-1,2,6,7,8,9,10,11,12,13,14,15,16,17-tetradecahydro-3H-cyclopenta[a]phenanthren-3-one (non-preferred name)",GBFFSHZRGVVSDW-ASWBSXDLSA-N,C[C@]12CCC(=O)C=C1CC[C@@H]3[C@@H]2CC[C@@]4(C)[C@H]3CCC4(O)C#CCO,-3.526033775
A-4944,1-chloro-4-methylbenzene,NPDACUSDTOMAMK-UHFFFAOYSA-N,Cc1ccc(Cl)cc1,-3.1023856768
A-4945,5-vinylbicyclo[2.2.1]hept-2-ene,INYHZQLKOKTDAI-UHFFFAOYSA-N,C=CC1CC2CC1C=C2,-3.0798864018
A-4946,"2,5,8,11-tetramethyldodec-6-yne-5,8-diol",RHRRUYIZUBAQTQ-UHFFFAOYSA-N,CC(C)CCC(C)(O)C#CC(C)(O)CCC(C)C,-3.4375252922
A-4947,nickel(2+) ion sulfanediide,ZOPQVUGKTLTCMT-UHFFFAOYSA-N,S.[Ni],-3.022952972
A-4948,iron(3+) phosphate,WBJZTOZJJYAKHQ-UHFFFAOYSA-K,[Fe+3].[O-][P]([O-])([O-])=O,-3.2614644911
A-4952,3-(3-aminobenzenesulfonyl)aniline,LJGHYPLBDBRCRZ-UHFFFAOYSA-N,Nc1cccc(c1)[S](=O)(=O)c2cccc(N)c2,-3.5118956043
A-4953,"ethyl 2,6,6-trimethylcyclohexa-1,3-diene-1-carboxylate",KYEZYLFPHRVFBF-UHFFFAOYSA-N,CCOC(=O)C1=C(C)C=CCC1(C)C,-3.411619706
A-4955,"Amines, C16-18 and C18-unsatd. alkyl",FJLUATLTXUNBOT-UHFFFAOYSA-N,CCCCCCCCCCCCCCCCN,-3.5835100427
A-4957,octadecan-1-amine,REYJJPSVUYRZGE-UHFFFAOYSA-N,CCCCCCCCCCCCCCCCCCN,-3.6312456144
A-4958,3-Nitrophthalonitrile,UZJZIZFCQFZDHP-UHFFFAOYSA-N,[O-][N+](=O)c1cccc(C#N)c1C#N,-2.9373448418
A-4959,"3-(2-chloroethyl)quinazoline-2,4(1H,3H)-dione",HWFSVCPXNLEACG-UHFFFAOYSA-N,ClCCN1C(=O)Nc2ccccc2C1=O,-3.5747994393
A-4960,"1-(5,5-dimethylcyclohex-1-en-1-yl)pent-4-en-1-one",OEVIJAZJVZDBQL-UHFFFAOYSA-N,CC1(C)CCC=C(C1)C(=O)CCC=C,-3.5342474855
A-4961,2-(2-{[(2R)-2-ethylhexyl]oxy}ethoxy)ethyl prop-2-enoate 2-(2-{[(2S)-2-ethylhexyl]oxy}ethoxy)ethyl prop-2-enoate,AAOLSIAQZZQQCI-IKFJUQJOSA-N,CCCC[C@H](CC)COCCOCCOC(=O)C=C.CCCC[C@@H](CC)COCCOCCOC(=O)C=C,-3.9942741056
A-4962,disodium; chromium(+3) cation; 3-(3-methyl-5-oxido-1-phenylpyrazol-4-yl)diazenyl-4-oxidobenzenesulfonate; 1-(2-oxido-5-phenyldiazenylphenyl)diazenylnaphthalen-2-olate,QTQCXPMMVMMHIW-UHFFFAOYSA-I,[Na+].[Na+].[Cr+3].Cc1nn(c([O-])c1N=Nc2cc(ccc2[O-])[S]([O-])(=O)=O)c3ccccc3.[O-]c4ccc(cc4N=Nc5c([O-])ccc6ccccc56)N=Nc7ccccc7,-2.6916066775
A-4966,"4-(1-ethoxyvinyl)-3,3,5,5-tetramethylcyclohexanone",YLNYLLVKHRZLGO-UHFFFAOYSA-N,CCOC(=C)C1C(C)(C)CC(=O)CC1(C)C,-3.6433442829
A-4967,(5-amino-3-hydroxy-5-oxopentylidene)-dimethylazanium chloride,LTELZMDSXFWIGP-UHFFFAOYSA-N,[Cl-].C[N+](C)=CCC(O)CC(N)=O,0.5931295033
A-4968,"1,3-dichloro-5-nitrobenzene",RNABGKOKSBUFHW-UHFFFAOYSA-N,[O-][N+](=O)c1cc(Cl)cc(Cl)c1,-3.5843334863
A-4969,cyclohexanethiol,CMKBCTPCXZNQKX-UHFFFAOYSA-N,SC1CCCCC1,-3.3672139557
A-4971,tin(4+) ion disulfanediide,TUTLDIXHQPSHHQ-UHFFFAOYSA-N,[S--].[S--].[Sn+4],-3.5808418514
A-4972,"N-(2,6-dimethylphenyl)-2-piperazine-1,4-diium-1-ylacetamide",NJKRFQIWDJSYOK-UHFFFAOYSA-P,Cc1cccc(C)c1NC(=O)C[NH+]2CC[NH2+]CC2,0.4432827885
A-4973,trisodium hydrogen carbonate carbonate,WCTAGTRAWPDFQO-UHFFFAOYSA-K,[Na+].[Na+].[Na+].OC([O-])=O.[O-]C([O-])=O,0.0508613622
A-4974,5-Chlorothiophene-2-sulfonamide,RKLQLYBJAZBSEU-UHFFFAOYSA-N,N[S](=O)(=O)c1sc(Cl)cc1,-3.2959363681
A-4975,N-(4-fluorophenyl)-2-hydroxy-N-propan-2-ylacetamide,RISGISSUGUGJMO-UHFFFAOYSA-N,CC(C)N(C(=O)CO)c1ccc(F)cc1,-1.1786398993
A-4979,dicopper hydroxide phosphate,WCMHCPWEQCWRSR-UHFFFAOYSA-J,[OH-].[Cu++].[Cu++].[O-][P]([O-])([O-])=O,-3.7450548094
A-4980,prop-2-en-1-yl heptanoate,SJWKGDGUQTWDRV-UHFFFAOYSA-N,CCCCCCC(=O)OCC=C,-3.5976237668
A-4982,4-heptylphenol,KNDDEFBFJLKPFE-UHFFFAOYSA-N,CCCCCCCc1ccc(O)cc1,-3.6597017052
A-4984,(4-nonylphenoxy)acetic acid,NISAHDHKGPWBEM-UHFFFAOYSA-N,CCCCCCCCCc1ccc(OCC(O)=O)cc1,-3.8425967597
A-4985,"trizinc(2+) ion bis(2-hydroxypropane-1,2,3-tricarboxylate)",WGIWBXUNRXCYRA-UHFFFAOYSA-H,[Zn++].[Zn++].[Zn++].OC(CC([O-])=O)(CC([O-])=O)C([O-])=O.OC(CC([O-])=O)(CC([O-])=O)C([O-])=O,-2.2540402576
A-4992,"5-(2-methylundecan-2-yldisulfanyl)-3H-1,3,4-thiadiazole-2-thione",UGMGEYBGNHXQQO-UHFFFAOYSA-N,CCCCCCCCCC(C)(C)SSC1=NNC(=S)S1,-3.9885639112
A-4993,"(4E)-3-methyl-5-(2,2,3-trimethylcyclopent-3-en-1-yl)pent-4-en-2-ol",RNLHVODSMDJCBR-VURMDHGXSA-N,CC(O)C(C)\C=C/C1CC=C(C)C1(C)C,-3.7860287034
A-4994,2-amino-3-hydroxypropanehydrazide hydrochloride,JNWGUZKRVDKZBI-UHFFFAOYSA-N,[H+].[Cl-].NNC(=O)C(N)CO,0.5104628122
A-4997,4-{1-[4-hydroxy-3-(prop-2-en-1-yl)phenyl]propyl}-2-(prop-2-en-1-yl)phenol,WOCGGVRGNIEDSZ-UHFFFAOYSA-N,CC(C)(c1ccc(O)c(CC=C)c1)c2ccc(O)c(CC=C)c2,-3.9963835519
A-4998,"[2-methyl-2-(2-methylpropyl)-1,3-dioxolan-4-yl]methanol",DFDWGIZZMBNYBV-UHFFFAOYSA-N,CC(C)CC1(C)OCC(CO)O1,-0.7059803773
A-4999,Sulfur hexafluoride,SFZCNBIFKDRMGX-UHFFFAOYSA-N,F[S](F)(F)(F)(F)F,-3.6731547352
A-5000,tris(6-methylheptyl)amine,YKGBNAGNNUEZQC-UHFFFAOYSA-N,CC(C)CCCCCN(CCCCCC(C)C)CCCCCC(C)C,-4.0572475801
A-5003,1-benzyl-N-phenylpiperidin-4-amine,FSXGJIFBTBJMHV-UHFFFAOYSA-N,C1CN(CCC1Nc2ccccc2)Cc3ccccc3,-3.9542229462
A-5004,"4-bromo-2,2-diphenylbutanoic acid",GFIYIIRFIODLLU-UHFFFAOYSA-N,OC(=O)C(CCBr)(c1ccccc1)c2ccccc2,-4.0694912575
A-5005,Aldadiene,UJVLDDZCTMKXJK-UHFFFAOYSA-N,CC12CCC(=O)C=C1C=CC3C2CCC4(C)C3CCC45CCC(=O)O5,-4.1007061575
A-5006,disodium 4-[[(Z)-octadec-9-enyl]amino]-4-oxo-2-sulfonatobutanoate,PLHAFYWVSVUQCQ-XXAVUKJNSA-L,[Na+].[Na+].CCCCCCCC\C=C/CCCCCCCCNC(=O)CC(C([O-])=O)[S]([O-])(=O)=O,-0.0195157831
A-5007,"2,2,3,3,4,4,5,5-octafluoropentyl 2-methylprop-2-enoate",ZNJXRXXJPIFFAO-UHFFFAOYSA-N,CC(=C)C(=O)OCC(F)(F)C(F)(F)C(F)(F)C(F)F,-4.0459673488
A-5010,"6,6-dimethylheptanoic acid",AAOISIQFPPAFQO-UHFFFAOYSA-N,CC(C)(C)CCCCC(O)=O,-2.4750431492
A-5012,1-(methoxymethyl)-4-[4-(methoxymethyl)phenyl]benzene,MODAACUAXYPNJH-UHFFFAOYSA-N,COCc1ccc(cc1)c2ccc(COC)cc2,-4.0023686333
A-5013,1-[({[(tetradecyloxy)carbonyl]peroxy}carbonyl)oxy]tetradecane,CSKKAINPUYTTRW-UHFFFAOYSA-N,CCCCCCCCCCCCCCOC(=O)OOC(=O)OCCCCCCCCCCCCCC,-4.3499005787
A-5014,sulfanylideneiron,MBMLMWLHJBBADN-UHFFFAOYSA-N,S=[Fe],-3.6218288656
A-5015,Dicyclopentadiene,HECLRDQVFMWTQS-UHFFFAOYSA-N,C1C=CC2C3CC(C=C3)C12,-3.8202211698
A-5016,"6,10-dimethylundecan-2-one",RBGLEUBCAJNCTR-UHFFFAOYSA-N,CC(C)CCCC(C)CCCC(C)=O,-4.0051761335
A-5018,cyclooctene,URYYVOIYTNXXBN-UPHRSURJSA-N,C1CCC\C=C/CC1,-3.770339988
A-5019,[disulfanediylbis(carbonothioylnitrilo)]tetramethane,KUAZQDVKQLNFPE-UHFFFAOYSA-N,CN(C)C(=S)SSC(=S)N(C)C,-4.1161961212
A-5021,dimethoxy(2-methylpropyl)propan-2-ylsilane,XFAOZKNGVLIXLC-UHFFFAOYSA-N,CO[Si](CC(C)C)(OC)C(C)C,-4.0243009096
A-5022,"tetrakis(1,2,2,6,6-pentamethylpiperidin-4-yl) butane-1,2,3,4-tetracarboxylate",WUPCFMITFBVJMS-UHFFFAOYSA-N,CN1C(C)(C)CC(CC1(C)C)OC(=O)CC(C(CC(=O)OC2CC(C)(C)N(C)C(C)(C)C2)C(=O)OC3CC(C)(C)N(C)C(C)(C)C3)C(=O)OC4CC(C)(C)N(C)C(C)(C)C4,-4.672731896
A-5025,piperidine-4-carboxylic acid hydrochloride,NVUYWKBRSRPYMH-UHFFFAOYSA-N,[H+].[Cl-].OC(=O)C1CCNCC1,0.3840315923
A-5026,"3-ethyl 5-methyl 4-(2-chlorophenyl)-1,4-dihydro-2-[2-(1,3-dihydro-1,3-dioxo-(2H)isoindol-2-yl)-ethoxymethyl]-6-methyl-3,5-pyridinedicarboxylate",AHHPZGUFLGCZCF-UHFFFAOYSA-N,CCOC(=O)C1=C(COCCN2C(=O)c3ccccc3C2=O)NC(=C(C1c4ccccc4Cl)C(=O)OC)C,-4.5011269518
A-5027,prop-2-en-1-yl 3-cyclohexylpropanoate,TWXUTZNBHUWMKJ-UHFFFAOYSA-N,C=CCOC(=O)CCC1CCCCC1,-4.0624492536
A-5028,"methyl 2-[(4-ethoxy-6-methylamino-1,3,5-triazin-2-yl)carbamoylsulfamoyl]benzoate",ZINJLDJMHCUBIP-UHFFFAOYSA-N,CCOc1nc(NC)nc(NC(=O)N[S](=O)(=O)c2ccccc2C(=O)OC)n1,-4.3879107689
A-5029,calcium carbonate,VTYYLEPIZMXCLO-UHFFFAOYSA-L,[Ca++].[O-]C([O-])=O,-3.7802652447
A-5032,4-[(4-amino-3-methylphenyl)methyl]-2-methylaniline,WECDUOXQLAIPQW-UHFFFAOYSA-N,Cc1cc(Cc2ccc(N)c(C)c2)ccc1N,-4.1506087086
A-5033,tributyl-2-thiourea,UDYXMTORTDACTG-UHFFFAOYSA-N,CCCCNC(=S)N(CCCC)CCCC,-4.1840665057
A-5034,bis(2-ethylhexyl)amine,SAIKULLUBZKPDA-UHFFFAOYSA-N,CCCCC(CC)CNCC(CC)CCCC,-4.2367225564
A-5035,4-[(4-amino-3-chlorophenyl)methyl]-2-chloroaniline,IBOFVQJTBBUKMU-UHFFFAOYSA-N,Nc1ccc(Cc2ccc(N)c(Cl)c2)cc1Cl,-4.2868907228
A-5036,"(4E)-3,3-dimethyl-5-(2,2,3-trimethylcyclopent-3-en-1-yl)pent-4-en-2-ol",QZFSNJAQFWEXEA-MDZDMXLPSA-N,CC(O)C(C)(C)\C=C\C1CC=C(C)C1(C)C,-4.2167463336
A-5040,"bis(2,4,4-trimethylpentyl)phosphinic acid",QUXFOKCUIZCKGS-UHFFFAOYSA-N,CC(CC(C)(C)C)C[P](O)(=O)CC(C)CC(C)(C)C,-4.3661284711
A-5041,3-(4-fluorophenyl)-1-(4-sulfamoylphenyl)thiourea,VUDOFEJVAFMLEC-UHFFFAOYSA-N,N[S](=O)(=O)c1ccc(NC(=S)Nc2ccc(F)cc2)cc1,-2.9899599684
A-5043,"ethyl 1-(4-methoxyphenyl)-7-oxo-6-[4-(2-oxopiperidin-1-yl)phenyl]-1H,4H,5H,6H,7H-pyrazolo[3,4-c]pyridine-3-carboxylate",PULNLYVCJSOXKS-UHFFFAOYSA-N,CCOC(=O)c1nn(c2ccc(OC)cc2)c3C(=O)N(CCc13)c4ccc(cc4)N5CCCCC5=O,-4.6282058436
A-5045,"7-chloro-5-(2-chlorophenyl)-2-oxo-2,3-dihydro-1H-1,4-benzodiazepin-4-ium-4-olate",HIJLVSVTJNDDHT-UHFFFAOYSA-N,ON1CC(=O)N=C2C=CC(=CC2=C1c3ccccc3Cl)Cl,-4.4653328209
A-5048,hexane,VLKZOEOYAKHREP-UHFFFAOYSA-N,CCCCCC,-3.9441703352
A-5049,"N',N''''-hexane-1,6-diylbis(1-cyanoguanidine)",YXZZOMVBHPCKMM-UHFFFAOYSA-N,NC(NC#N)=NCCCCCCN=C(N)NC#N,-4.4346903729
A-5050,"1,5-dimethyl-1-vinylhex-4-en-1-yl propionate",WAQIIHCCEMGYKP-UHFFFAOYSA-N,CCC(=O)OC(C)(CCC=C(C)C)C=C,-4.3823578934
A-5051,trisodium; chromium(+3) cation; 4-(3-methyl-5-oxido-1-phenylpyrazol-4-yl)diazenyl-3-oxidonaphthalene-1-sulfonate,OTFBCUKLFXRMQQ-UHFFFAOYSA-H,[Na+].[Na+].[Na+].[Cr+3].Cc1nn(c([O-])c1N=Nc2c([O-])cc(c3ccccc23)[S]([O-])(=O)=O)c4ccccc4.Cc5nn(c([O-])c5N=Nc6c([O-])cc(c7ccccc67)[S]([O-])(=O)=O)c8ccccc8,-1.2121028981
A-5053,docosyltrimethylazanium methyl sulfate,QIVLQXGSQSFTIF-UHFFFAOYSA-M,CCCCCCCCCCCCCCCCCCCCCC[N+](C)(C)C.CO[S]([O-])(=O)=O,-4.8359730654
A-5054,10-Methoxyiminostilbene,ZKHZWXLOSIGIGZ-UHFFFAOYSA-N,COC1=Cc2ccccc2Nc3ccccc13,-4.5144193944
A-5057,"3,7,11,15-tetramethylhexadec-1-en-3-ol",KEVYVLWNCKMXJX-UHFFFAOYSA-N,CC(C)CCCC(C)CCCC(C)CCCC(C)(O)C=C,-4.7086538251
A-5059,"[4-[(4-diethylaminophenyl)-phenylmethylidene]-1-cyclohexa-2,5-dienylidene]-diethylazanium; hydrogen sulfate",NNBFNNNWANBMTI-UHFFFAOYSA-M,CCN(CC)c1ccc(cc1)[C+](c2ccccc2)c3ccc(cc3)N(CC)CC.O[S]([O-])(=O)=O,-2.0572883439
A-5060,"13-ethyl-3-methoxy-6,7,11,12,13,14,15,16-octahydro-17H-cyclopenta[a]phenanthren-17-one (non-preferred name)",PFKPABPFEUSONI-ICSRJNTNSA-N,CC[C@]12CCC3=C(CCc4cc(OC)ccc34)[C@@H]1CCC2=O,-4.772922847
A-5061,"3-methoxyestra-2,5(10)-dien-17-ol",XFFZLECPCHQJIR-GFEQUFNTSA-N,COC1=CCC2=C(CC[C@@H]3[C@@H]2CC[C@]4(C)[C@@H](O)CC[C@@H]34)C1,-4.7610719313
A-5063,"2-ethyl-2-[2-(6-methoxy-3,4-dihydronaphthalen-1(2H)-ylidene)ethyl]cyclopentane-1,3-dione",OMXFYKCGCDGYNC-KAMYIIQDSA-N,CCC1(C/C=C2/CCCc3cc(OC)ccc23)C(=O)CCC1=O,-4.8388171185
A-5064,manganese(2+) ion carbonate,XMWCXZJXESXBBY-UHFFFAOYSA-L,[Mn++].[O-]C([O-])=O,-4.5005872378
A-5065,"7-chloro-5-(2-chlorophenyl)-2-oxo-2,3-dihydro-1H-1,4-benzodiazepin-3-yl acetate",CYDZMDOLVUBPNL-UHFFFAOYSA-N,CC(=O)OC1N=C(c2ccccc2Cl)c3cc(Cl)ccc3NC1=O,-5.0286669228
A-5067,"3-methoxyestra-2,5(10)-dien-17-one",NSUVCVKCWGOYPV-UHFFFAOYSA-N,COC1=CCC2=C(CCC3C2CCC4(C)C3CCC4=O)C1,-4.9798745042
A-5069,N-phenylnaphthalen-1-amine,XQVWYOYUZDUNRW-UHFFFAOYSA-N,N(c1ccccc1)c2cccc3ccccc23,-4.8638916314
A-5070,2-(benzoyloxy)ethyl benzoate,XFDQLDNQZFOAFK-UHFFFAOYSA-N,O=C(OCCOC(=O)c1ccccc1)c2ccccc2,-5.0700925015
A-5071,oxonickel,GNRSAWUEBMWBQH-UHFFFAOYSA-N,O=[Ni],-4.5191656494
A-5072,"2,4a,5,8a-tetramethyl-1,2,3,4,4a,7,8,8a-octahydronaphthalen-1-yl formate",DAWDTDPJINNEJM-UHFFFAOYSA-N,CC1CCC2(C)C(=CCCC2(C)C1OC=O)C,-5.0311421132
A-5073,"methyl 3-(3,5-di-tert-butyl-4-hydroxyphenyl)propanoate",PXMJCECEFTYEKE-UHFFFAOYSA-N,COC(=O)CCc1cc(c(O)c(c1)C(C)(C)C)C(C)(C)C,-5.1235829068
A-5074,"3,9-bis(cyclohex-3-en-1-yl)-2,4,8,10-tetraoxaspiro[5.5]undecane",WKTJXDHLMJKSGI-UHFFFAOYSA-N,C1CC(CC=C1)C2OCC3(CO2)COC(OC3)C4CCC=CC4,-5.2397354439
A-5076,"4-(3,4,5,6-tetramethyloctan-2-yl)phenol",AOOKHLGAVNECET-UHFFFAOYSA-N,CCC(C)C(C)C(C)CCc1ccc(O)cc1,-5.1824053879
A-5077,"13-ethyl-3-methoxy-1,4,6,7,8,9,11,12,13,14,15,16-dodecahydro-17H-cyclopenta[a]phenanthren-17-one (non-preferred name)",PQMRKLSVUBRLLQ-XSYGEPLQSA-N,CC[C@]12CC[C@H]3[C@@H](CCC4=C3CC=C(C4)OC)[C@@H]1CCC2=O,-5.363817292
A-5078,"1,2,4-tris(8-methylnonyl) benzene-1,2,4-tricarboxylate",FJFYFBRNDHRTHL-UHFFFAOYSA-N,CC(C)CCCCCCCOC(=O)c1ccc(C(=O)OCCCCCCCC(C)C)c(c1)C(=O)OCCCCCCCC(C)C,-5.7065739478
A-5079,dicopper(2+) ion chloride trihydroxide,SKQUUKNCBWILCD-UHFFFAOYSA-J,[OH-].[OH-].[OH-].[Cl-].[Cu++].[Cu++],-5.2539851522
A-5081,zinc bis(dimethyldithiocarbamate),DUBNHZYBDBBJHD-UHFFFAOYSA-L,[Zn++].CN(C)C([S-])=S.CN(C)C([S-])=S,-5.4987140306
A-5082,"6,10,14-trimethylpentadecan-2-one",WHWDWIHXSPCOKZ-UHFFFAOYSA-N,CC(C)CCCC(C)CCCC(C)CCCC(C)=O,-5.4746775177
A-5083,oxomanganese,VASIZKWUTCETSD-UHFFFAOYSA-N,O=[Mn],-4.921453892
A-5084,"6-O-acetyl-1,3,4-tri-O-isobutyryl-beta-D-fructofuranosyl 6-O-acetyl-2,3,4-tri-O-isobutyryl-alpha-D-glucopyranoside",UVGUPMLLGBCFEJ-SWTLDUCYSA-N,CC(C)C(=O)OC[C@H]1O[C@@](COC(C)=O)(O[C@H]2O[C@H](COC(C)=O)[C@@H](OC(=O)C(C)C)[C@H](OC(=O)C(C)C)[C@H]2OC(=O)C(C)C)[C@@H](OC(=O)C(C)C)[C@@H]1OC(=O)C(C)C,-6.0735348087
A-5086,manganese,PWHULOQIROXLJO-UHFFFAOYSA-N,[Mn],-4.894774805
A-5088,lanthanum(3+) ion trifluoride,BYMUNNMMXKDFEZ-UHFFFAOYSA-K,[F-].[F-].[F-].[La+3],-5.5353983277
A-5090,"1,3-diphenylpropane-1,3-dione",NZZIMKJIVMHWJC-UHFFFAOYSA-N,O=C(CC(=O)c1ccccc1)c2ccccc2,-5.657902962
A-5091,4-methyl-2-[(2-nitrophenyl)diazenyl]phenol,GLFDXJBEJWBCQP-RVDMUPIBSA-N,CC1=CC(=N/Nc2ccccc2[N+]([O-])=O)\C(=O)C=C1,-5.7475958635
A-5092,oxocopper,QPLDLSVMHZLSFG-UHFFFAOYSA-N,O=[Cu],-5.3051166643
A-5093,tetrairon tris(pyrophosphate),CADNYOZXMIKYPR-UHFFFAOYSA-B,[Fe+3].[Fe+3].[Fe+3].[Fe+3].[O-][P]([O-])(=O)O[P]([O-])([O-])=O.[O-][P]([O-])(=O)O[P]([O-])([O-])=O.[O-][P]([O-])(=O)O[P]([O-])([O-])=O,-6.3076085303
A-5094,dibutylbis(dodecylsulfanyl)stannane,FFGHLLOLFQHABK-UHFFFAOYSA-L,CCCCCCCCCCCCS[Sn](CCCC)(CCCC)SCCCCCCCCCCCC,-6.295424349
A-5095,"1,10-didocosyl decanedioate",PRNNATBNXILRSR-UHFFFAOYSA-N,CCCCCCCCCCCCCCCCCCCCCCOC(=O)CCCCCCCCC(=O)OCCCCCCCCCCCCCCCCCCCCCC,-6.405660228
A-5096,"6-Methylene-3,20-dioxopregn-4-en-17-yl acetate",YCDZXIYKJHQMIG-UHFFFAOYSA-N,CC(=O)OC1(CCC2C3CC(=C)C4=CC(=O)CCC4(C)C3CCC12C)C(C)=O,-6.1077931611
A-5097,"N,N-dibutyl({[(dibutylcarbamothioyl)sulfanyl]methyl}sulfanyl)carbothioamide",LMODBLQHQHXPEI-UHFFFAOYSA-N,CCCCN(CCCC)C(=S)SCSC(=S)N(CCCC)CCCC,-6.2405235691
A-5100,"ethyl 1-(4-methoxyphenyl)-6-(4-nitrophenyl)-7-oxo-1H,4H,5H,6H,7H-pyrazolo[3,4-c]pyridine-3-carboxylate",RQNAOIQEGPVYTC-UHFFFAOYSA-N,CCOC(=O)c1nn(c2ccc(OC)cc2)c3C(=O)N(CCc13)c4ccc(cc4)[N+]([O-])=O,-6.6187193264
A-5101,dimethyl[3-(octadecyloxy)propyl]amine,BHQZSXXOSYWJSZ-UHFFFAOYSA-N,CCCCCCCCCCCCCCCCCCOCCCN(C)C,-6.8520540298
A-5103,tantalum,GUVRBAGPIYLISA-UHFFFAOYSA-N,[Ta],-6.9291741838
A-5104,2-(2-hydroxybenzoyl)-5-methoxyphenol,MEZZCSHVIGVWFI-UHFFFAOYSA-N,COc1ccc(c(O)c1)C(=O)c2ccccc2O,-7.2738841077
A-5106,2-oxo-N-[4-({4-[(2-oxoazepane-1-carbonyl)amino]phenyl}methyl)phenyl]azepane-1-carboxamide,CFDIRYSIEKJPRZ-UHFFFAOYSA-N,O=C1CCCCCN1C(=O)Nc2ccc(Cc3ccc(NC(=O)N4CCCCCC4=O)cc3)cc2,-7.7632612616
A-5107,{4-[(4-methylphenyl)sulfanyl]phenyl}(phenyl)methanone,DBHQYYNDKZDVTN-UHFFFAOYSA-N,Cc1ccc(Sc2ccc(cc2)C(=O)c3ccccc3)cc1,-7.6154082599
A-5110,"bis(2,3,4,4-tetramethylpentan-2-yl)trisulfane",AVVJXRYTKMKDQS-UHFFFAOYSA-N,CC(C(C)(C)C)C(C)(C)SSSC(C)(C)C(C)C(C)(C)C,-9.129966133
A-5111,zinc(2+) ion dinitrate,ONDPHDOFVYQSGI-UHFFFAOYSA-N,[Zn++].[O-][N+]([O-])=O.[O-][N+]([O-])=O,0.7217551526
A-5112,"[(7,7-dimethyloctanoyl)oxy]bario 7,7-dimethyloctanoate",ROSHGJWNZDDJFF-UHFFFAOYSA-L,[Ba++].CC(C)(C)CC(C)(C)CC([O-])=O.CC(C)(C)CC(C)(C)CC([O-])=O,-1.698832456
A-5113,tetrabutylphosphonium bromide,RKHXQBLJXBGEKF-UHFFFAOYSA-M,[Br-].CCCC[P+](CCCC)(CCCC)CCCC,0.41483097
A-5115,"2-aminopropane-1,3-diol",KJJPLEZQSCZCKE-UHFFFAOYSA-N,NC(CO)CO,0.9744271172
A-5116,disilver(1+) sulfate,YPNVIBVEFVRZPJ-UHFFFAOYSA-N,[Ag+].[Ag+].O[S](O)(=O)=O,-1.5849835398
A-5117,manganese(2+) ion dichloride,CNFDGXZLMLFIJV-UHFFFAOYSA-L,O.O.O.O.[Cl-].[Cl-].[Mn++],0.5826413073
A-5118,"2-amino-2-(hydroxymethyl)propane-1,3-diol",LENZDBCJOHFCAS-UHFFFAOYSA-N,NC(CO)(CO)CO,0.790628369
A-5119,"N,N-diethylethanaminium bromide",NRTLTGGGUQIRRT-UHFFFAOYSA-N,[Br-].CC[NH+](CC)CC,0.5951972854
A-5122,tris(2-hydroxyethyl)methylammonium methyl sulphate,WLTHPEHYBIKNHR-UHFFFAOYSA-M,CO[S]([O-])(=O)=O.C[N+](CCO)(CCO)CCO,0.3926664196
A-5124,disodium 2-hexadecyl-3-(2-sulfonatophenoxy)benzenesulfonate,DWBRKIMUGXLNBO-UHFFFAOYSA-L,[Na+].[Na+].CCCCCCCCCCCCCCCCc1c(Oc2ccccc2[S]([O-])(=O)=O)cccc1[S]([O-])(=O)=O,0.2227653537
A-5125,diammonium 2-[(carboxylatomethyl)disulfanyl]acetate,RZOXALOSBVDYRY-UHFFFAOYSA-N,[NH4+].[NH4+].[O-]C(=O)CSSCC([O-])=O,0.4596030518
A-5126,"D-Glucitol, propoxylated",OJZGCEDLMNSDNY-UHFFFAOYSA-N,OCCCOCC(OCCCO)C(OCCCO)C(OCCCO)C(COCCCO)OCCCO,0.053341445
A-5127,"5-methyl-[1,2,4]triazolo[1,5-a]pyrimidin-7-ol",INVVMIXYILXINW-UHFFFAOYSA-N,CC1=CC(=O)N2NC=NC2=N1,-1.3471955313
A-5128,"{[5-(6-amino-9H-purin-9-yl)-3,4-dihydroxyoxolan-2-yl]methoxy}[({[hydroxy(sodiooxy)phosphoryl]oxy}(sodiooxy)phosphoryl)oxy]phosphinic acid",TTWYZDPBDWHJOR-IDIVVRGQSA-L,[Na+].[Na+].Nc1ncnc2n(cnc12)[C@@H]3O[C@H](CO[P](O)(=O)O[P]([O-])(=O)O[P](O)([O-])=O)[C@@H](O)[C@H]3O,0.0168879621
A-5129,"phosphocreatine, sodium salt",RNTXMYSPASRLFT-UHFFFAOYSA-L,[Na+].[Na+].CN(CC(O)=O)C(N)=N[P]([O-])([O-])=O,0.3126582838
A-5130,barium(2+) ion bis(2-ethylhexanoate),VJFFDDQGMMQGTQ-UHFFFAOYSA-L,[Ba++].CCCCC(CC)C([O-])=O.CCCCC(CC)C([O-])=O,-0.905288847
A-5131,"sodium (2R,3R,4S,5R,6R)-2,3,4,5,6,7-hexahydroxyheptanoate",FMYOMWCQJXWGEN-WYRLRVFGSA-M,[Na+].OC[C@@H](O)[C@@H](O)[C@H](O)[C@@H](O)[C@@H](O)C([O-])=O,0.3170701984
A-5132,disodium 2-oxopentanedioate,YBGBJYVHJTVUSL-UHFFFAOYSA-L,[Na+].[Na+].[O-]C(=O)CCC(=O)C([O-])=O,0.4295256052
A-5133,"decane-1,10-diamine",YQLZOAVZWJBZSY-UHFFFAOYSA-N,NCCCCCCCCCCN,1.527701003
A-5135,disodium 4-[(2-methylnonyl)oxy]-4-oxo-3-sulfonatobutanoate,YBNSWAFWAWIDJZ-UHFFFAOYSA-N,[Na+].[Na+].CC(C)CCCCCCCO.OC(=O)CC(C(O)=O)[S](O)(=O)=O,0.0810654195
A-5136,"l-Glutamic acid, N-coco acyl derivs., disodium salts",PXEDJBXQKAGXNJ-QTNFYWBSSA-L,[Na+].[Na+].N[C@@H](CCC([O-])=O)C([O-])=O,0.3719654626
A-5137,zinc dibenzoate,JDLYKQWJXAQNNS-UHFFFAOYSA-L,[Zn++].[O-]C(=O)c1ccccc1.[O-]C(=O)c2ccccc2,-1.8168417251
A-5138,2-methyloxirane,GOOHAUXETOMSMM-UHFFFAOYSA-N,CC1CO1,0.8325704879
A-5139,N-(butoxymethyl)prop-2-enamide,UTSYWKJYFPPRAP-UHFFFAOYSA-N,CCCCOCNC(=O)C=C,-0.6536630282
A-5141,dibromane,CPELXLSAUQHCOX-UHFFFAOYSA-M,[Br-],-0.3762292433
A-5142,sodium 3-[(2-carboxyethyl)(dodecyl)amino]propanoate,LLKGTXLYJMUQJX-UHFFFAOYSA-M,[Na+].CCCCCCCCCCCCN(CCC(O)=O)CCC([O-])=O,-0.0407296334
A-5143,sodium [methyl(oleoyl)amino]acetate,VLKIFCBXANYYCK-ASTDGNLGSA-M,[Na+].CCCCCCCC/C=C/CCCCCCCC(=O)N(C)CC([O-])=O,-0.097522226
A-5145,(2R)-2-hydroxy-N-(2-hydroxyethyl)propanamide,RZCHTMXTKQHYDT-UHFFFAOYSA-N,CC(O)C(=O)NCCO,1.3070323786
A-5146,barium bis(dihydrogenorthophosphate),WAKZZMMCDILMEF-UHFFFAOYSA-H,[Ba++].[Ba++].[Ba++].[O-][P]([O-])([O-])=O.[O-][P]([O-])([O-])=O,-1.3456118943