ID,Name,InChIKey,SMILES,Solubility
A-2143,"3,3,4,4,5,5,6,6,7,7,8,8,8-tridecafluorooctyl 2-methylprop-2-enoate",CDXFIRXEAJABAZ-UHFFFAOYSA-N,CC(=C)C(=O)OCCC(F)(F)C(F)(F)C(F)(F)C(F)(F)C(F)(F)C(F)(F)F,-6.0581688457
A-2145,"1-(4-{[4-(2,5-dioxo-2,5-dihydro-1H-pyrrol-1-yl)phenyl]methyl}phenyl)-2,5-dihydro-1H-pyrrole-2,5-dione",XQUPVDVFXZDTLT-UHFFFAOYSA-N,O=C1C=CC(=O)N1c2ccc(Cc3ccc(cc3)N4C(=O)C=CC4=O)cc2,-5.9980085438
A-2147,tetradecan-1-ol,HLZKNKRTKFSKGZ-UHFFFAOYSA-N,CCCCCCCCCCCCCCO,-5.787142557
A-2149,diphenyl 4-(propan-2-yl)phenyl phosphate phenyl bis[4-(propan-2-yl)phenyl] phosphate triphenyl phosphate tris[4-(propan-2-yl)phenyl] phosphate,ANVREEJNGJMLOV-UHFFFAOYSA-N,CC(C)c1ccc(O[P](=O)(Oc2ccc(cc2)C(C)C)Oc3ccc(cc3)C(C)C)cc1,-6.1371343954
A-2150,trichloro(octyl)stannane,INTLMJZQCBRQAT-UHFFFAOYSA-K,CCCCCCCC[Sn](Cl)(Cl)Cl,-6.0107803553
A-2151,"N-(1,3-benzothiazol-2-ylsulfanyl)cyclohexanamine",DEQZTKGFXNUBJL-UHFFFAOYSA-N,C1CCC(CC1)NSc2sc3ccccc3n2,-5.9171426801
A-2152,copper,RYGMFSIKBFXOCR-UHFFFAOYSA-N,[Cu],-5.2979382401
A-2154,"3-[(7Z)-pentadec-7-en-1-yl]phenol; 3-[(7Z,10Z)-pentadeca-7,10,14-trien-1-yl]phenol; 3-[(7Z,10Z)-pentadeca-7,10-dien-1-yl]phenol; 3-pentadecylphenol",BQLBNJKYLGWYQM-ZWUGTYOTSA-N,CCCCCCCCCCCCCCCc1cccc(O)c1.CCCCCCC\C=C/CCCCCCc2cccc(O)c2.CCCC/C=C\C\C=C/CCCCCCc3cccc(O)c3.Oc4cccc(CCCCCC\C=C/C/C=C\CCC=C)c4,-6.5970388257
A-2155,N-(2-ethoxyphenyl)-N'-(2-ethylphenyl)ethanediamide,YIMHRDBSVCPJOV-UHFFFAOYSA-N,CCOc1ccccc1NC(=O)C(=O)Nc2ccccc2CC,-6.0175466725
A-2157,oxacyclohexadecan-2-one,FKUPPRZPSYCDRS-UHFFFAOYSA-N,O=C1CCCCCCCCCCCCCCO1,-5.9037897228
A-2158,"2,2'-vinylenebis[5-methylbenzoxazole]",VKRZNAWSCAUDRQ-BQYQJAHWSA-N,Cc1ccc2oc(\C=C\c3oc4ccc(C)cc4n3)nc2c1,-6.0004819491
A-2162,aluminium(3+) ion tris(N-nitroso-N-oxidoaniline),PMSRCBOGDIMQAT-UHFFFAOYSA-N,[Al+3].[O-]N(N=O)c1ccccc1.[O-]N(N=O)c2ccccc2.[O-]N(N=O)c3ccccc3,-6.1946491089
A-2167,"N,N-diethyl-4-[(E)-2-phenyldiazen-1-yl]aniline",SJJISKLXUJVZOA-UHFFFAOYSA-N,CCN(CC)c1ccc(cc1)N=Nc2ccccc2,-5.9821152675
A-2168,neodymium(3+) ion trifluoride,XRADHEAKQRNYQQ-UHFFFAOYSA-K,[F-].[F-].[F-].[Nd+3],-5.8937682366
A-2169,"2-ethyl-9,10-dihydroanthracene-9,10-dione",SJEBAWHUJDUKQK-UHFFFAOYSA-N,CCc1ccc2C(=O)c3ccccc3C(=O)c2c1,-5.9842424969
A-2172,(4-methyl-4-phenylpent-1-en-2-yl)benzene,ZOKCNEIWFQCSCM-UHFFFAOYSA-N,CC(C)(CC(=C)c1ccccc1)c2ccccc2,-6.0118424704
A-2173,"{2-butyl-4-chloro-1-[(4-{2-[2-(triphenylmethyl)-2H-1,2,3,4-tetrazol-5-yl]phenyl}phenyl)methyl]-1H-imidazol-5-yl}methanol",QQPGGBNMTNDKEY-UHFFFAOYSA-N,CCCCc1nc(Cl)c(CO)n1Cc2ccc(cc2)c3ccccc3c4nnn(n4)C(c5ccccc5)(c6ccccc6)c7ccccc7,-6.4612511717
A-2174,disodium oxotitaniumbis(olate),LJUBBLNHYXJKSN-UHFFFAOYSA-N,[O--].[O--].[O--].[Na+].[Na+].[Ti+4],-5.8054579954
A-2175,(2R)-2-ethylhexyl (2E)-3-(4-methoxyphenyl)prop-2-enoate (2S)-2-ethylhexyl (2E)-3-(4-methoxyphenyl)prop-2-enoate,AKRXZXNNMQZCSA-IVGCKTBMSA-N,CCCC[C@H](CC)COC(=O)/C=C/c1ccc(OC)cc1.CCCC[C@@H](CC)COC(=O)/C=C/c2ccc(OC)cc2,-6.4216084134
A-2176,"1,4-dimethyl 2-[(E)-2-{2-oxo-1-[(2-oxo-2,3-dihydro-1H-1,3-benzodiazol-5-yl)carbamoyl]propyl}diazen-1-yl]benzene-1,4-dicarboxylate",KEZJTZQNDCLRDB-UHFFFAOYSA-N,COC(=O)c1ccc(C(=O)OC)c(c1)N=NC(C(C)=O)C(=O)Nc2ccc3NC(=O)Nc3c2,-6.3140693713
A-2177,2-decyloxirane,MPGABYXKKCLIRW-UHFFFAOYSA-N,CCCCCCCCCCC1CO1,-5.9231568495
A-2178,2-dodecyloxirane,IOHJQSFEAYDZGF-UHFFFAOYSA-N,CCCCCCCCCCCCC1CO1,-5.9846848009
A-2179,"Decahydrospiro[furan-2(3H),5'-[4,7]methano[5h]indene]",JDJZAKLOMAHING-UHFFFAOYSA-N,C1COC2(C1)CC3CC2C4CCCC34,-5.9415611202
A-2180,ethenyl[(ethenyldimethylsilyl)oxy]dimethylsilane,BITPLIXHRASDQB-UHFFFAOYSA-N,C[Si](C)(O[Si](C)(C)C=C)C=C,-5.9544825522
A-2181,"2-[1-(2-hydroxy-3,5-dimethylphenyl)-2-methylpropyl]-4,6-dimethylphenol",SZAQZZKNQILGPU-UHFFFAOYSA-N,CC(C)C(c1cc(C)cc(C)c1O)c2cc(C)cc(C)c2O,-6.1673406199
A-2183,"1,3-dimethyl 5-[(E)-2-{2-oxo-1-[(2-oxo-2,3-dihydro-1H-1,3-benzodiazol-5-yl)carbamoyl]propyl}diazen-1-yl]benzene-1,3-dicarboxylate",IHRACTUONPFMSI-UHFFFAOYSA-N,COC(=O)c1cc(cc(c1)C(=O)OC)N=NC(C(C)=O)C(=O)Nc2ccc3NC(=O)Nc3c2,-6.3777384512
A-2184,"5,7-dihydroxy-2-(3-hydroxy-4-methoxyphenyl)-4H-chromen-4-one",MBNGWHIJMBWFHU-UHFFFAOYSA-N,COc1ccc(cc1O)C2=CC(=O)c3c(O)cc(O)cc3O2,-6.1987525576
A-2186,"tris(2-[bis(2-hydroxyethyl)amino]ethan-1-ol); 6-({bis[(5-carboxypentyl)amino]-1,3,5-triazin-2-yl}amino)hexanoic acid",CAQVCPKFGUCELS-UHFFFAOYSA-N,OCCN(CCO)CCO.OCCN(CCO)CCO.OCCN(CCO)CCO.OC(=O)CCCCCNc1nc(NCCCCCC(O)=O)nc(NCCCCCC(O)=O)n1,-6.6832011337
A-2187,"3,3,4,4,5,5,6,6,7,7,8,8,8-tridecafluorooctyl prop-2-enoate",VPKQPPJQTZJZDB-UHFFFAOYSA-N,FC(F)(F)C(F)(F)C(F)(F)C(F)(F)C(F)(F)C(F)(F)CCOC(=O)C=C,-6.3541593341
A-2188,bis(8-methylnonyl) phenyl phosphite,SXXILWLQSQDLDL-UHFFFAOYSA-N,CC(C)CCCCCCCOP(OCCCCCCCC(C)C)Oc1ccccc1,-6.3820299142
A-2190,oxotitanium; sulfuric acid,ZYPJORZNHDXKSD-UHFFFAOYSA-N,O[S](O)(=O)=O.O=[Ti],-5.9613942775
A-2193,"2-methyl-9,10-dihydroanthracene-9,10-dione",NJWGQARXZDRHCD-UHFFFAOYSA-N,Cc1ccc2C(=O)c3ccccc3C(=O)c2c1,-6.1171462485
A-2200,"1-N,4-N-diphenylbenzene-1,4-diamine",UTGQNNCQYDRXCH-UHFFFAOYSA-N,N(c1ccccc1)c2ccc(Nc3ccccc3)cc2,-6.2394496415
A-2201,"2,6-dimethyl naphthalene-2,6-dicarboxylate",GYUVMLBYMPKZAZ-UHFFFAOYSA-N,COC(=O)c1ccc2cc(ccc2c1)C(=O)OC,-6.211736201
A-2205,"dialuminium tris[2-(2,4,5,7-tetrabromo-6-oxido-3-oxoxanthen-9-yl)benzoate]",JNDCLPVZJSPREA-UHFFFAOYSA-H,[Al+3].[Al+3].[O-]C(=O)c1ccccc1C2=C3C=C(Br)C(=O)C(=C3Oc4c(Br)c([O-])c(Br)cc24)Br.[O-]C(=O)c5ccccc5C6=C7C=C(Br)C(=O)C(=C7Oc8c(Br)c([O-])c(Br)cc68)Br.[O-]C(=O)c9ccccc9C%10=C%11C=C(Br)C(=O)C(=C%11Oc%12c(Br)c([O-])c(Br)cc%10%12)Br,-7.1435627019
A-2206,"1,4-dihydroxy-9,10-dihydroanthracene-9,10-dione",GUEIZVNYDFNHJU-UHFFFAOYSA-N,Oc1ccc(O)c2C(=O)c3ccccc3C(=O)c12,-6.2534935167
A-2210,"1,2-bis(propan-2-yl)naphthalene",IAUKWGFWINVWKS-UHFFFAOYSA-N,CC(C)c1ccc2ccccc2c1C(C)C,-6.2301136188
A-2214,dioctylstannanone,LQRUPWUPINJLMU-UHFFFAOYSA-N,CCCCCCCC[Sn](=O)CCCCCCCC,-6.4785159933
A-2217,"4-{4-[4-(4-methoxyphenyl)piperazin-1-yl]phenyl}-4,5-dihydro-1H-1,2,4-triazol-5-one",SEHQVBVJJRRRSG-UHFFFAOYSA-N,COc1ccc(cc1)N2CCN(CC2)c3ccc(cc3)N4C=NNC4=O,-6.4889092646
A-2218,"1-(4-chlorophenyl)-3-(3,4-dichlorophenyl)urea",ICUTUKXCWQYESQ-UHFFFAOYSA-N,Clc1ccc(NC(=O)Nc2ccc(Cl)c(Cl)c2)cc1,-6.4577264198
A-2221,"1,1-bis(tert-butylperoxy)-3,3,5-trimethylcyclohexane",NALFRYPTRXKZPN-UHFFFAOYSA-N,CC1CC(C)(C)CC(C1)(OOC(C)(C)C)OOC(C)(C)C,-6.4806607684
A-2225,"(1R,4E,9S)-4,11,11-trimethyl-8-methylidenebicyclo[7.2.0]undec-4-ene",NPNUFJAVOOONJE-GFUGXAQUSA-N,C\C1=C/CCC(=C)[C@H]2CC(C)(C)[C@@H]2CC1,-6.3372616649
A-2229,"1,1'-(2,3-dimethylbutane-2,3-diyl)dibenzene",HGTUJZTUQFXBIH-UHFFFAOYSA-N,CC(C)(c1ccccc1)C(C)(C)c2ccccc2,-6.4741688972
A-2231,2-(benzyloxy)naphthalene,WLTCCDHHWYAMCG-UHFFFAOYSA-N,C(Oc1ccc2ccccc2c1)c3ccccc3,-6.4776739787
A-2232,"6-Bromo-3-methyl-3H-dibenz[f,ij]isoquinoline-2,7-dione",QTNAUUGQZYCWGQ-UHFFFAOYSA-N,CN1C(=O)C=C2c3ccccc3C(=O)c4c(Br)ccc1c24,-6.6804453214
A-2233,3-hydroxy-N-(3-nitrophenyl)-2-naphthamide,YZJSKRBKHCLMQC-UHFFFAOYSA-N,Oc1cc2ccccc2cc1C(=O)Nc3cccc(c3)[N+]([O-])=O,-6.6438656239
A-2235,lanthanum(+3) cation; oxygen(-2) anion,MRELNEQAGSRDBK-UHFFFAOYSA-N,[O--].[O--].[O--].[La+3].[La+3],-6.6703538373
A-2236,"bis(2,4-dichloro-5-nitrophenyl) carbonate",CVUDBPILLYLOSC-UHFFFAOYSA-N,[O-][N+](=O)c1cc(OC(=O)Oc2cc(c(Cl)cc2Cl)[N+]([O-])=O)c(Cl)cc1Cl,-6.8129074612
A-2238,"Terphenyl, hydrogenated",TVBYFUMVFJKKNJ-UHFFFAOYSA-N,C1CC=CC(C1)c2ccc(cc2)C3CCC=CC3,-6.5919290491
A-2240,octadec-9-en-1-yl dihydrogen phosphate,JGVOASSDYQIBIF-KVVVOXFISA-N,CCCCCCCC\C=C/CCCCCCCCO.O[P](O)(O)=O,-6.7858978433
A-2241,4-tert-butylphenol; formaldehyde,LZDOYVMSNJBLIM-UHFFFAOYSA-N,CC(C)(C)c1ccc(O)cc1.C=O,-6.4939402067
A-2243,mercury,QSHDDOUJBYECFT-UHFFFAOYSA-N,[Hg],-6.5541212514
A-2244,"1-[(E)-2-(2,4-dimethylphenyl)diazen-1-yl]naphthalen-2-ol",YPXOPAFVVHXQDP-ZZEZOPTASA-N,Cc1ccc(N\N=C2/C(=O)C=Cc3ccccc23)c(C)c1,-6.7054442976
A-2245,methyl myristate,ZAZKJZBWRNNLDS-UHFFFAOYSA-N,CCCCCCCCCCCCCC(=O)OC,-6.6497381608
A-2246,(4-anilino-1-naphthyl){bis[4-(dimethylamino)phenyl]}methanol,WNDULEJVCPEASN-UHFFFAOYSA-N,CN(C)c1ccc(cc1)C(O)(c2ccc(cc2)N(C)C)c3ccc(Nc4ccccc4)c5ccccc35,-6.9891355524
A-2248,N-{2-[(2-benzamidophenyl)disulfanyl]phenyl}benzamide,ZHMIOPLMFZVSHY-UHFFFAOYSA-N,O=C(Nc1ccccc1SSc2ccccc2NC(=O)c3ccccc3)c4ccccc4,-6.9782870605
A-2250,"N,N-DIBUTYLDODECANAMIDE",MFARGUPPFBTESX-UHFFFAOYSA-N,CCCCCCCCCCCC(=O)N(CCCC)CCCC,-7.0164120768
A-2251,(2-methoxy-5-nitrophenyl) acetate,XBFBLYSAWSLPRY-UHFFFAOYSA-N,COc1ccc(cc1OC(C)=O)[N+]([O-])=O,-2.9466040673
A-2252,Copper; methanesulfonic acid,SDFNZYMSEOUVIF-UHFFFAOYSA-N,[Cu].C[S](O)(=O)=O,0.7323301822
A-2253,4-methylbenzoyl 4-methylbenzene-1-carboperoxoate,AGKBXKFWMQLFGZ-UHFFFAOYSA-N,Cc1ccc(cc1)C(=O)OOC(=O)c2ccc(C)cc2,-6.798351882
A-2255,2-cyclohexyl-6-[(3-cyclohexyl-2-hydroxy-5-methylphenyl)methyl]-4-methylphenol,AKNMPWVTPUHKCG-UHFFFAOYSA-N,Cc1cc(Cc2cc(C)cc(C3CCCCC3)c2O)c(O)c(c1)C4CCCCC4,-6.9790342734
A-2257,"1,2-bis(2-ethylhexyl) benzene-1,2-dicarboxylate",BJQHLKABXJIVAM-UHFFFAOYSA-N,CCCCC(CC)COC(=O)c1ccccc1C(=O)OCC(CC)CCCC,-6.9789083532
A-2258,"1,2-bis(propan-2-yl)benzene; 1,3-bis(propan-2-yl)benzene; 1,4-bis(propan-2-yl)benzene",OKIRBHVFJGXOIS-UHFFFAOYSA-N,CC(C)c1ccccc1C(C)C,-6.6027992709
A-2259,"1,3-diisopropylbenzene",UNEATYXSUBPPKP-UHFFFAOYSA-N,CC(C)c1cccc(c1)C(C)C,-6.6027992709
A-2260,"(Z)-N-(1,3-dihydroxyoctadecan-2-yl)octadec-9-enamide",MJQIARGPQMNBGT-ZCXUNETKSA-N,CCCCCCCCCCCCCCCC(O)C(CO)NC(=O)CCCCCCC\C=C/CCCCCCCC,-6.4517618811
A-2262,hexadecanoic acid,IPCSVZSSVZVIGE-UHFFFAOYSA-N,CCCCCCCCCCCCCCCC(O)=O,-6.806908841
A-2264,"4,7-Methano-1H-indenol, 3a,4,5,6,7,7a-hexahydro-, acetate",KARQHHMQOVRDNL-UHFFFAOYSA-N,CC(=O)OC1=CCC2C3CCC(C3)C12,-3.0097265709
A-2267,"octamethyl-1,3,5,7,2,4,6,8-tetraoxatetrasilocane",HMMGMWAXVFQUOA-UHFFFAOYSA-N,C[Si]1(C)O[Si](C)(C)O[Si](C)(C)O[Si](C)(C)O1,-6.9536864907
A-2268,3-octanoyloxypropyl octanoate,XBBMJUWOCGWHRP-UHFFFAOYSA-N,CCCCCCCC(=O)OCCCOC(=O)CCCCCCC,-7.5165261194
A-2269,"1-(3,3-dimethylcyclohexyl)pent-4-en-1-one",OHYNEUHOSWPWLZ-UHFFFAOYSA-N,CC1(C)CCCC(C1)C(=O)CCC=C,-4.7793105096
A-2270,9-ethyl-9H-carbazole,PLAZXGNBGZYJSA-UHFFFAOYSA-N,CCn1c2ccccc2c3ccccc13,-6.813503151
A-2271,N-ethyl-N-{2-[1-(2-methylpropoxy)ethoxy]ethyl}-4-[(E)-2-phenyldiazen-1-yl]aniline,BATVZJPOLFSGTD-UHFFFAOYSA-N,CCN(CCOC(C)OCC(C)C)c1ccc(cc1)N=Nc2ccccc2,-7.0905037661
A-2272,zirconium(4+) ion diphosphate,LEHFSLREWWMLPU-UHFFFAOYSA-B,[Zr+4].[Zr+4].[Zr+4].[O-][P]([O-])([O-])=O.[O-][P]([O-])([O-])=O.[O-][P]([O-])([O-])=O.[O-][P]([O-])([O-])=O,-7.3381588933
A-2273,"3-[(E)-4-[[5,6-di(phenyl)-1,2,4-triazin-3-yl]sulfanyl]but-2-enyl]sulfanyl-5,6-di(phenyl)-1,2,4-triazine",IBPFDTBQAMYTIU-BUHFOSPRSA-N,C(Sc1nnc(c2ccccc2)c(n1)c3ccccc3)\C=C\CSc4nnc(c5ccccc5)c(n4)c6ccccc6,-7.0251255547
A-2274,"1-(4-tert-butylphenyl)-3-(4-methoxyphenyl)propane-1,3-dione",XNEFYCZVKIDDMS-UHFFFAOYSA-N,COc1ccc(cc1)C(=O)CC(=O)c2ccc(cc2)C(C)(C)C,-7.0605481543
A-2277,"2,2,4,6,6-pentamethyl-3,5-dioxa-2,4,6-trisilaheptane",SWGZAKPJNWCPRY-UHFFFAOYSA-N,C[Si](O[Si](C)(C)C)O[Si](C)(C)C,-7.0443456956
A-2282,"5-hydroxy-2-(3-hydroxy-4-methoxyphenyl)-7-{[(2S,3R,4S,5S,6R)-3,4,5-trihydroxy-6-({[(2R,3R,4R,5R,6S)-3,4,5-trihydroxy-6-methyloxan-2-yl]oxy}methyl)oxan-2-yl]oxy}-4H-chromen-4-one",GZSOSUNBTXMUFQ-YFAPSIMESA-N,COc1ccc(cc1O)C2=CC(=O)c3c(O)cc(O[C@@H]4O[C@H](CO[C@@H]5O[C@@H](C)[C@H](O)[C@@H](O)[C@H]5O)[C@@H](O)[C@H](O)[C@H]4O)cc3O2,-7.5055419522
A-2283,"1,3,5-tris[[(2R)-oxiran-2-yl]methyl]-1,3,5-triazinane-2,4,6-trione",OUPZKGBUJRBPGC-IWSPIJDZSA-N,O=C1N(C[C@@H]2CO2)C(=O)N(C[C@@H]3CO3)C(=O)N1C[C@@H]4CO4,-2.4688253265
A-2284,"4,11-diamino-2-(3-methoxypropyl)-1H,2H,3H,5H,10H-naphtho[2,3-f]isoindole-1,3,5,10-tetrone",WBCXRDHKXHADQF-UHFFFAOYSA-N,COCCCN1C(=O)c2c(N)c3C(=O)c4ccccc4C(=O)c3c(N)c2C1=O,-7.323792769
A-2287,docosanoic acid,UKMSUNONTOPOIO-UHFFFAOYSA-N,CCCCCCCCCCCCCCCCCCCCCC(O)=O,-7.3281144602
A-2288,3-phenylpropyl benzoate,ONPVMQLRVWKFFL-UHFFFAOYSA-N,O=C(OCCCc1ccccc1)c2ccccc2,-4.8009737888
A-2289,2-methylheptan-1-ol,QZESEQBMSFFHRY-UHFFFAOYSA-N,CCCCCC(C)CO,-2.5281270707
A-2292,palladium (II) di(4-oxopent-2-en-2-oate),PLYDYQGKZLDFTI-UHFFFAOYSA-N,[Pd++].CC(=O)[CH-]C(C)=O.CC(=O)[CH-]C(C)=O,-7.4384610967
A-2293,"3,4,9,10-Perylenetetracarboxylic diimide",KJOLVZJFMDVPGB-UHFFFAOYSA-N,O=C1NC(=O)c2ccc3c4ccc5C(=O)NC(=O)c6ccc(c7ccc1c2c37)c4c56,-7.591458634
A-2294,"1-hydroxy-4-[(4-methylphenyl)amino]-9,10-dihydroanthracene-9,10-dione",LJFWQNJLLOFIJK-UHFFFAOYSA-N,Cc1ccc(Nc2ccc(O)c3C(=O)c4ccccc4C(=O)c23)cc1,-7.5491813124
A-2295,oxygen(-2) anion; zirconium(+4) cation; sulfate,QRTRRDMHGTZPBF-UHFFFAOYSA-L,[O--].[Zr+4].[O-][S]([O-])(=O)=O,-7.7060474791
A-2297,"2-ethyl-2-[2-(6-methoxy-3,4-dihydro-2H-naphthalen-1-ylidene)ethyl]cyclopentane-1,3-dione",OMXFYKCGCDGYNC-SDNWHVSQSA-N,CCC1(C\C=C2/CCCc3cc(OC)ccc23)C(=O)CCC1=O,-4.172504242
A-2298,octadecane,RZJRJXONCZWCBN-UHFFFAOYSA-N,CCCCCCCCCCCCCCCCCC,-7.6275399492
A-2299,"8,8-dimethyl-7-propan-2-yl-6,10-dioxaspiro[4.5]decane",NKDJGNROVOPIGT-UHFFFAOYSA-N,CC(C)C1OC2(CCCC2)OCC1(C)C,-3.5242437705
A-2301,"2-ethylhexyl 4-({bis[(4-{[(2-ethylhexyl)oxy]carbonyl}phenyl)amino]-1,3,5-triazin-2-yl}amino)benzoate",JGUMTYWKIBJSTN-UHFFFAOYSA-N,CCCCC(CC)COC(=O)c1ccc(Nc2nc(Nc3ccc(cc3)C(=O)OCC(CC)CCCC)nc(Nc4ccc(cc4)C(=O)OCC(CC)CCCC)n2)cc1,-8.2164783763
A-2304,methyl palmitate,FLIACVVOZYBSBS-UHFFFAOYSA-N,CCCCCCCCCCCCCCCC(=O)OC,-7.8300382351
A-2307,"Bis(2-hydroxyethyl) 2-[(6-oxobenzo[c][2,1]benzoxaphosphinin-6-yl)methyl]butanedioate",MJOBQUIJUFKMPR-UHFFFAOYSA-N,OCCOC(=O)CC(C[P]1(=O)Oc2ccccc2c3ccccc13)C(=O)OCCO,-4.4617795617
A-2308,"2,2-dimethyl-1,3-dihydroperimidine",DETLTZYXZWIXIB-UHFFFAOYSA-N,CC1(C)Nc2cccc3cccc(N1)c23,-2.9298988951
A-2309,potassium 16-methylheptadecanoate,NGNZTXNWCGRXKL-UHFFFAOYSA-M,[K+].CC(C)CCCCCCCCCCCCCCC([O-])=O,-8.1469015236
A-2312,2-[(4-{[2-(4-cyclohexylphenoxy)ethyl](ethyl)amino}-2-methylphenyl)methylidene]propanedinitrile,NQAJBKZEQYYFGK-UHFFFAOYSA-N,CCN(CCOc1ccc(cc1)C2CCCCC2)c3ccc(C=C(C#N)C#N)c(C)c3,-8.3860948559
A-2313,"2,4-ditert-butyl-6-(3,5-ditert-butyl-2-hydroxyphenyl)phenol",GDGDLBOVIAWEAD-UHFFFAOYSA-N,CC(C)(C)c1cc(c(O)c(c1)C(C)(C)C)c2cc(cc(c2O)C(C)(C)C)C(C)(C)C,-6.8891874969
A-2317,1-[(E)-2-(2-methoxyphenyl)diazen-1-yl]naphthalen-2-ol,BBBYRJLYBLPEBL-ZPHPHTNESA-N,COc1ccccc1N\N=C2/C(=O)C=Cc3ccccc23,-8.9260164319
A-2318,methyl octadecanoate,HPEUJPJOZXNMSJ-UHFFFAOYSA-N,CCCCCCCCCCCCCCCCCC(=O)OC,-8.9978390846
A-2319,"1,2-Benzenedicarboxylic acid, di-C9-11-branched alkyl esters, C10-rich",ZVFDTKUVRCTHQE-UHFFFAOYSA-N,CC(C)CCCCCCCOC(=O)c1ccccc1C(=O)OCCCCCCCC(C)C,-9.4195398078
A-2320,divanadium pentaoxide,GNTDGMZSJNCJKK-UHFFFAOYSA-N,O=[V](=O)O[V](=O)=O,-2.3036141272
A-2321,"Propylidynetrimethanol, ethoxylated, esters with acrylic acid",MTPIZGPBYCHTGQ-UHFFFAOYSA-N,CCC(COCCOC(=O)C=C)(COCCOC(=O)C=C)COCCOC(=O)C=C,-2.687445856
A-2322,4-[(4-hydroxyphenyl)(pyridin-2-yl)methyl]phenol,LJROKJGQSPMTKB-UHFFFAOYSA-N,Oc1ccc(cc1)C(c2ccc(O)cc2)c3ccccn3,-4.5239077972
A-2324,oxygen(-2) anion; vanadium; pentahydroxide; pentaphosphate,DZHUTCDIQDURCC-UHFFFAOYSA-A,[OH-].[OH-].[OH-].[OH-].[OH-].[O--].[O--].[O--].[O--].[O--].[V].[V].[V].[V].[V].[V].[O-][P]([O-])([O-])=O.[O-][P]([O-])([O-])=O.[O-][P]([O-])([O-])=O.[O-][P]([O-])([O-])=O.[O-][P]([O-])([O-])=O,-1.3503637805
A-2326,disilver(1+) carbonate,LKZMBDSASOBTPN-UHFFFAOYSA-N,[Ag].OC(O)=O,-3.4520216786
A-2329,potassium dodecyl hydrogen phosphate,MJHORFXTDAGQEU-UHFFFAOYSA-M,[K+].CCCCCCCCCCCCO[P](O)([O-])=O,-3.7844860574
A-2331,aluminium(3+) ion trifluoride,KLZUFWVZNOTSEM-UHFFFAOYSA-K,[F-].[F-].[F-].[Al+3],-4.1998793146
A-2334,2-(4-phenylbenzoyl)benzoic acid,NBYNVBRXIUUSIG-UHFFFAOYSA-N,OC(=O)c1ccccc1C(=O)c2ccc(cc2)c3ccccc3,-4.8282334666
A-2335,"1,3,5,7-tetranitro-1,3,5,7-tetrazocane",UZGLIIJVICEWHF-UHFFFAOYSA-N,[O-][N+](=O)N1CN(CN(CN(C1)[N+]([O-])=O)[N+]([O-])=O)[N+]([O-])=O,-4.8251168095
A-2336,"1-[(1E,5Z,9Z)-2,5,10-trimethylcyclododeca-1,5,9-trien-1-yl]ethan-1-one; 1-[(1R)-2,5,10-trimethylcyclododeca-2,5,9-trien-1-yl]ethan-1-one; 1-[(1R)-4,9-dimethyl-12-methylidenecyclododeca-4,8-dien-1-yl]ethan-1-one; 1-[(1S)-2,5,10-trimethylcyclododeca-2,5,9-trien-1-yl]ethan-1-one; 1-[(1S)-4,9-dimethyl-12-methylidenecyclododeca-4,8-dien-1-yl]ethan-1-one",IBZATQUGDOLKJX-GPRJLHHYSA-N,CC(=O)[C@H]1CCC(=CCCC=C(C)CCC1=C)C.CC(=O)[C@@H]2CCC(=CCCC=C(C)CCC2=C)C.CC(=O)[C@H]3CCC(=CCCC=C(C)CC=C3C)C.CC(=O)[C@@H]4CCC(=CCCC=C(C)CC=C4C)C.CC/5=C/CC\C=C(C)/CC/C(=C(/C)CC5)C(C)=O,-5.4491260218
A-2337,2-[(E)-2-(1-cyano-1-methylpropyl)diazen-1-yl]-2-methylbutanenitrile,AVTLBBWTUPQRAY-UHFFFAOYSA-N,CCC(C)(N=NC(C)(CC)C#N)C#N,-2.6961915261
A-2338,(2S)-2-aminopentanedioic acid; 2-(bis(2-hydroxyethyl)amino)ethanol,TUBPSFQENHCYBW-HVDRVSQOSA-N,N[C@@H](CCC(O)=O)C(O)=O.OCCN(CCO)CCO,0.111437809
A-2342,"4-(2,3,4-trihydroxybenzoyl)phenyl 5-oxo-6-[(1E)-tetraaza-1,3-dien-1-yl]-5,8-dihydronaphthalene-1-sulfonate",WVRFNJXNBZHDGZ-UHFFFAOYSA-N,Oc1ccc(c(O)c1O)C(=O)c2ccc(O[S](=O)(=O)c3cccc4C(=O)C(=CCc34)N=NN=N)cc2,-5.1052907305
A-2345,"2-chlorobuta-1,3-diene",YACLQRRMGMJLJV-UHFFFAOYSA-N,ClC(=C)C=C,-2.5509254551
A-2346,(ethenesulfonyl)methanesulfonylethene,IJHIIHORMWQZRQ-UHFFFAOYSA-N,C=C[S](=O)(=O)C[S](=O)(=O)C=C,-3.9198954495
A-2347,tetrafluoromethane,TXEYQDLBPFQVAA-UHFFFAOYSA-N,FC(F)(F)F,-3.6703396281
A-2348,4-(2-phenylpropan-2-yl)phenol,QBDSZLJBMIMQRS-UHFFFAOYSA-N,CC(C)(c1ccccc1)c2ccc(O)cc2,-4.0964847072
A-2350,"4,6-dichloro-5-nitro-2-(propylsulfanyl)pyrimidine",DDEDQHVHVPJFAC-UHFFFAOYSA-N,CCCSc1nc(Cl)c(c(Cl)n1)[N+]([O-])=O,-4.3869446244
A-2351,"disodium 2-(2,4,5,7-tetrabromo-6-oxido-3-oxo-3H-xanthen-9-yl)benzoate",SEACYXSIPDVVMV-UHFFFAOYSA-L,[Na+].[Na+].[O-]C(=O)c1ccccc1C2=C3C=C(Br)C(=O)C(=C3Oc4c(Br)c([O-])c(Br)cc24)Br,-0.8400175948
A-2352,methyl methanesulfonate,MBABOKRGFJTBAE-UHFFFAOYSA-N,CO[S](C)(=O)=O,-0.0419214128
A-2355,"2-{3-[(8E)-pentadec-8-en-1-yl]phenoxymethyl}oxirane; 2-{3-[(8E,11E)-pentadeca-8,11,14-trien-1-yl]phenoxymethyl}oxirane; 2-{3-[(8E,11E)-pentadeca-8,11-dien-1-yl]phenoxymethyl}oxirane",OUKSICCLOBOVAZ-XSBYHUFWSA-N,CCCCCC/C=C/CCCCCCCc1cccc(OCC2CO2)c1.CCC/C=C/C/C=C/CCCCCCCc3cccc(OCC4CO4)c3.C=CC/C=C/C/C=C/CCCCCCCc5cccc(OCC6CO6)c5,-6.0798516889
A-2356,N-phenylaniline; formaldehyde; propan-2-one,AXEXTEASNRDWCD-UHFFFAOYSA-N,CC(C)=O.C=O.N(c1ccccc1)c2ccccc2,-5.969586401
A-2357,"2,2,4,4,6,12,15-heptamethyl-6-[(trimethylsilyl)oxy]-3,5,10,13,16-pentaoxa-2,4,6-trisilaheptadecane",GNXVOWXPZHCCTP-UHFFFAOYSA-N,COC(C)COC(C)COCCC[Si](C)(O[Si](C)(C)C)O[Si](C)(C)O[Si](C)(C)C,-6.2877399393
A-2359,"ethyl 3,5-dichloro-4-{[(hexadecyloxy)carbonyl]oxy}benzoate",DFMGMJBWBQNZNK-UHFFFAOYSA-N,CCCCCCCCCCCCCCCCOC(=O)Oc1c(Cl)cc(cc1Cl)C(=O)OCC,-7.1338037886
A-2361,copper(2+) ion bis((9Z)-octadec-9-enoate),SVOAENZIOKPANY-CVBJKYQLSA-L,[Cu++].CCCCCCCC\C=C/CCCCCCCC([O-])=O.CCCCCCCC\C=C/CCCCCCCC([O-])=O,-11.9989378619
A-2362,"(2S,4S)-4-cyclohexylpyrrolidine-2-carboxylic acid hydrochloride",BHGFUQJUTOVQOS-UXQCFNEQSA-N,Cl.OC(=O)[C@@H]1C[C@H](CN1)C2CCCCC2,0.631268384
A-2363,2-azabicyclo[2.2.1]hept-5-en-3-one,DDUFYKNOXPZZIW-UHFFFAOYSA-N,O=C1NC2CC1C=C2,0.9361608079
A-2367,cyclohexylbenzene,IGARGHRYKHJQSM-UHFFFAOYSA-N,C1CCC(CC1)c2ccccc2,-4.3415022783
A-2371,"dipotassium disodium 2,4-diamino-5-(2-{2-sulfonato-4-[2-(sulfonatooxy)ethanesulfonyl]phenyl}diazen-1-yl)-3-(2-{4-[2-(sulfonatooxy)ethanesulfonyl]phenyl}diazen-1-yl)benzene-1-sulfonate",WHNCPPZRBQNNEY-UHFFFAOYSA-J,[Na+].[Na+].[K+].[K+].Nc1c(cc(c(N)c1N=Nc2ccc(cc2)[S](=O)(=O)CCO[S]([O-])(=O)=O)[S]([O-])(=O)=O)N=Nc3ccc(cc3[S]([O-])(=O)=O)[S](=O)(=O)CCO[S]([O-])(=O)=O,-0.2891446213
A-2372,"sodium 5-butyl-1H-1,2,3-benzotriazol-1-ide",GNLXYXCOPZDOPO-UHFFFAOYSA-N,[Na+].CCCCc1ccc2[n-]nnc2c1,0.4040256562
A-2377,"4,7,7-trimethylbicyclo[3.1.1]hept-3-ene",GRWFGVWFFZKLTI-UHFFFAOYSA-N,CC1=CCC2CC1C2(C)C,-3.7725704235
A-2378,2-(4-{2-[4-(oxiran-2-ylmethoxy)phenyl]propan-2-yl}phenoxymethyl)oxirane,LCFVJGUPQDGYKZ-UHFFFAOYSA-N,CC(C)(c1ccc(OCC2CO2)cc1)c3ccc(OCC4CO4)cc3,-4.7996200318
A-2379,"N,N-dimethylhexadecan-1-amine",NHLUVTZJQOJKCC-UHFFFAOYSA-N,CCCCCCCCCCCCCCCCN(C)C,-4.6524349135
A-2380,3-methyl-7-propan-2-ylbicyclo[2.2.2]oct-3-ene-6-carbaldehyde,BNAYNPKNDLTBTJ-UHFFFAOYSA-N,CC(C)C1CC2=C(C)CC1C(C2)C=O,-3.8508542835