ID,Name,InChIKey,SMILES,Solubility
B-143,"1-fluoro-2,4-dinitrobenzene",LOTKRQAVGJMPNV-UHFFFAOYSA-N,[O-][N+](=O)c1ccc(F)c(c1)[N+]([O-])=O,-2.6677
B-145,deferoxamine,UBQYURCVBFRUQT-UHFFFAOYSA-N,CC(=O)N(O)CCCCCNC(=O)CCC(=O)N(O)CCCCCNC(=O)CCC(=O)N(O)CCCCCN,-1.6695
B-146,histidine,HNDVDQJCIGZPNO-UHFFFAOYSA-N,NC(Cc1[nH]cnc1)C(O)=O,-0.5314
B-148,cytosine,OPTASPLRGRRNAP-UHFFFAOYSA-N,NC1=CC=NC(=O)N1,-1.1426
B-150,sodium lactate,NGSFWBMYFKHRBD-UHFFFAOYSA-M,[Na+].CC(O)C([O-])=O,0.9505
B-153,methoxychlor,IAKOZHOLGAGEJT-UHFFFAOYSA-N,COc1ccc(cc1)C(c2ccc(OC)cc2)C(Cl)(Cl)Cl,-6.5386
B-154,alizarine,RGCKGOZRHPZPFP-UHFFFAOYSA-N,Oc1ccc2C(=O)c3ccccc3C(=O)c2c1O,-2.7785
B-157,adenine,GFFGJBXGBJISGV-UHFFFAOYSA-N,Nc1ncnc2nc[nH]c12,-2.1179
B-159,bendroflumethiazide,HDWIHXWEUNVBIY-UHFFFAOYSA-N,N[S](=O)(=O)c1cc2c(NC(Cc3ccccc3)N[S]2(=O)=O)cc1C(F)(F)F,-3.5913
B-160,quinethazone,AGMMTXLNIQSRCG-UHFFFAOYSA-N,CCC1NC(=O)c2cc(c(Cl)cc2N1)[S](N)(=O)=O,-3.2859
B-162,methane,VNWKTOKETHGBQD-UHFFFAOYSA-N,C,-2.8629
B-167,hydrocyanic acid,LELOWRISYMNNSU-UHFFFAOYSA-N,C#N,1.5682
B-169,propyne,MWWATHDPGQKSAR-UHFFFAOYSA-N,CC#C,-1.0417
B-171,ethylamine,QUSNBJAOOMFDIB-UHFFFAOYSA-N,CCN,1.346
B-174,formamide oxime,SQDFHQJTAWCFIB-UHFFFAOYSA-N,ON=C,0.5768
B-176,ethylene oxide,IAYPIBMASNFSPL-UHFFFAOYSA-N,C1CO1,1.356
B-177,bromoform,DIKBFYAXUHHXCS-UHFFFAOYSA-N,BrC(Br)Br,-1.9113
B-180,2-iodopropane,FMKOJHQHASLBPH-UHFFFAOYSA-N,CC(C)I,-2.0843
B-181,isopropylamine,JJWLVOIRVHMVIS-UHFFFAOYSA-N,CC(C)N,1.2283
B-182,iodoform,OKJPEAGHQZHRQV-UHFFFAOYSA-N,IC(I)I,-3.5952
B-183,2-methylaziridine,OZDGMOYKSFPLSE-UHFFFAOYSA-N,CC1CN1,1.2434
B-184,cacodylic acid,OGGXGZAMXPVRFZ-UHFFFAOYSA-N,C[As](C)(O)=O,1.1612
B-190,acetone cyanohydrin,MWFMGBPGAXYFAR-UHFFFAOYSA-N,CC(C)(O)C#N,1.07
B-191,"1,1,1-trifluoro-2-chloroethane",CYXIKYKBLDZZNW-UHFFFAOYSA-N,FC(F)(F)CCl,-1.1098
B-193,"acetic acid, tribromo-",QIONYIKHPASLHO-UHFFFAOYSA-M,[O-]C(=O)C(Br)(Br)Br,-0.1713
B-194,"3,3-dimethyl-2-butanone",PJGSXYOJTGTZAV-UHFFFAOYSA-N,CC(=O)C(C)(C)C,-0.7219
B-196,dalapon,NDUPDOJHUQKPAG-UHFFFAOYSA-N,CC(Cl)(Cl)C(O)=O,0.5455
B-197,"1,1,1-trichloro-2-propanol",HCMBPASAOZIEDZ-UHFFFAOYSA-N,CC(O)C(Cl)(Cl)Cl,-0.7574
B-199,"acetic acid, chlorodifluoro-",OAWAZQITIZDJRB-UHFFFAOYSA-N,OC(=O)C(F)(F)Cl,0.8845
B-201,"1,1,1,2-tetrachloro-2,2-difluoroethane",SLGOCMATMKJJCE-UHFFFAOYSA-N,FC(F)(Cl)C(Cl)(Cl)Cl,-3.3093
B-202,"1,1,2,2,-tetrachlorodifluoroethane",UGCSPKPEHQEOSR-UHFFFAOYSA-N,FC(Cl)(Cl)C(F)(Cl)Cl,-3.2301
B-205,camphor,DSSYKIVIOFKYAU-UHFFFAOYSA-N,CC1(C)C2CCC1(C)C(=O)C2,-1.9784
B-206,alloxantin,IWDDXZKCDHOOSF-UHFFFAOYSA-N,OC1(C(=O)NC(=O)NC1=O)C2(O)C(=O)NC(=O)NC2=O,-1.9942
B-207,triamcinolone acetonide,YNDXUCZADRHECN-JNQJZLCISA-N,CC1(C)O[C@@H]2C[C@H]3[C@@H]4CCC5=CC(=O)C=C[C@]5(C)[C@@]4(F)[C@@H](O)C[C@]3(C)[C@@]2(O1)C(=O)CO,-4.3158
B-208,2-methyl-2-nitro-1-propanol,MVGJRISPEUZYAQ-UHFFFAOYSA-N,CC(C)(CO)[N+]([O-])=O,1.4681
B-209,"2,2,3-trichloro-1,1-butanediol",QVYLNOUOIXTUGA-UHFFFAOYSA-N,CC(Cl)C(Cl)(Cl)C(O)O,-0.8666
B-210,heptachlor,FRCCEHPWNOQAEU-UHFFFAOYSA-N,ClC1C=CC2C1C3(Cl)C(=C(Cl)C2(Cl)C3(Cl)Cl)Cl,-6.3168
B-211,codeine,OROGSEYTTFOCAN-DNJOTXNNSA-N,COc1ccc2C[C@@H]3[C@@H]4C=C[C@H](O)[C@@H]5Oc1c2[C@]45CCN3C,-1.522
B-212,dionine,OGDVEMNWJVYAJL-LEPYJNQMSA-N,CCOc1ccc2C[C@@H]3[C@@H]4C=C[C@H](O)[C@@H]5Oc1c2[C@]45CCN3C,-2.079
B-213,"benzenemethanol, 4-amino-.alpha.,.alpha.-bis(4-a",OYHZNLZYIRSDHN-UHFFFAOYSA-N,Cc1cc(ccc1N)C(O)(c2ccc(N)cc2)c3ccc(N)cc3,-3.0272
B-214,triphenylcarbinol,LZTRCELOJRDYMQ-UHFFFAOYSA-N,OC(c1ccccc1)(c2ccccc2)c3ccccc3,-2.2596
B-215,"barbituric acid,5-me-5-phenyl-",LSAOZCAKUIANSQ-UHFFFAOYSA-N,CC1(C(=O)NC(=O)NC1=O)c2ccccc2,-2.4581
B-216,phenolphthalein,KJFMBFZCATUALV-UHFFFAOYSA-N,Oc1ccc(cc1)C2(OC(=O)c3ccccc23)c4ccc(O)cc4,-2.9008
B-217,butalbital,UZVHFVZFNXBMQJ-UHFFFAOYSA-N,CC(C)CC1(CC=C)C(=O)NC(=O)NC1=O,-2.1193
B-218,chlorthalidone,JIVPVXMEBJLZRO-UHFFFAOYSA-N,N[S](=O)(=O)c1cc(ccc1Cl)C2(O)NC(=O)c3ccccc23,-3.4507
B-219,"2-methyl-2-nitropropane-1,3-diol",LOTYADDQWWVBDJ-UHFFFAOYSA-N,CC(CO)(CO)[N+]([O-])=O,0.7724
B-220,3-methyl-3-pentanol,FRDAATYAJDYRNW-UHFFFAOYSA-N,CCC(C)(O)CC,-0.38
B-222,tabun,PJVJTCIRVMBVIA-UHFFFAOYSA-N,CCO[P](=O)(C#N)N(C)C,-0.2186
B-224,acetyl tributyl citrate,QZCLKYGREBVARF-UHFFFAOYSA-N,CCCCOC(=O)CC(CC(=O)OCCCC)(OC(C)=O)C(=O)OCCCC,-4.9058
B-226,triethyl citrate,DOOTYTYQINUNNV-UHFFFAOYSA-N,CCOC(=O)CC(O)(CC(=O)OCC)C(=O)OCC,-0.6285
B-227,"1,1,1-tris(hydroxymethyl)propane",ZJCCRDAZUWHFQH-UHFFFAOYSA-N,CCC(CO)(CO)CO,0.8723
B-228,pentaerythritol tetranitrate,TZRXHJWUDPFEEY-UHFFFAOYSA-N,[O-][N+](=O)OCC(CO[N+]([O-])=O)(CO[N+]([O-])=O)CO[N+]([O-])=O,-3.8664
B-229,"3-pentanol, 3-methyl-, carbamate",SLWGJZPKHAXZQL-UHFFFAOYSA-N,CCC(C)(CC)OC(N)=O,-1.5599
B-230,tri-p-cresyl phosphate,BOSMZFBHAYFUBJ-UHFFFAOYSA-N,Cc1ccc(O[P](=O)(Oc2ccc(C)cc2)Oc3ccc(C)cc3)cc1,-6.0892
B-231,carisoprodol,OFZCIYFFPZCNJE-UHFFFAOYSA-N,CCCC(C)(COC(N)=O)COC(=O)NC(C)C,-2.9384
B-232,dibutyl butylphosphonate,JPGXOMADPRULAC-UHFFFAOYSA-N,CCCCO[P](=O)(CCCC)OCCCC,-2.6995
B-234,menazon,SUYHYHLFUHHVJQ-UHFFFAOYSA-N,CO[P](=S)(OC)SCc1nc(N)nc(N)n1,-3.069
B-237,linalool,CDOSHBSSFJOMGT-UHFFFAOYSA-N,CC(C)=CCCC(C)(O)C=C,-1.9871
B-238,"ethane, 1,1,2-tribromo-",QUMDOMSJJIFTCA-UHFFFAOYSA-N,BrCC(Br)Br,-2.7272
B-239,"1,2-dibromopropane",XFNJYAKDBJUJAJ-UHFFFAOYSA-N,CC(Br)CBr,-2.1498
B-242,isobutylamine,KDSNLYIMUZNERS-UHFFFAOYSA-N,CC(C)CN,1.1359
B-247,"2,3-dichloropropene",FALCMQXTWHPRIH-UHFFFAOYSA-N,ClCC(Cl)=C,-1.7128
B-248,chloroacetone,BULLHNJGPPOUOX-UHFFFAOYSA-N,CC(=O)CCl,-0.012
B-249,1-amino-2-propanol,HXKKHQJGJAFBHI-UHFFFAOYSA-N,CC(O)CN,1.1243
B-250,"1,1-dichloropropane",WIHMGGWNMISDNJ-UHFFFAOYSA-N,CCC(Cl)Cl,-1.6217
B-251,bromoacetic acid,KDPAWGWELVVRCH-UHFFFAOYSA-N,OC(=O)CBr,1.1002
B-255,peroxyacetic acid,KFSLWBXXFJQRDL-UHFFFAOYSA-N,CC(=O)OO,1.1189
B-257,dichloroacetic acid,JXTHNDFMNIQAHM-UHFFFAOYSA-N,OC(=O)C(Cl)Cl,0.8896
B-259,d-pantothenic acid,GHOKWGTUZJEAQD-UHFFFAOYSA-N,CC(C)(CO)C(O)C(=O)NCCC(O)=O,0.6591
B-260,"3-furancarboxylic acid, tetrahydro-2,2-dimethyl-",UZBOWOQARWWIER-SCSAIBSYSA-M,CC1(C)OC(=O)C[C@@H]1C([O-])=O,-1.2449
B-263,"benzenesulfonamide, 4-amino-n-[5-(1-methylethyl)",OPIGMRDAPFQALU-UHFFFAOYSA-N,CC(C)c1sc(N[S](=O)(=O)c2ccc(N)cc2)nn1,-3.4141
B-264,"peroxide, bis(1-methyl-1-phenylethyl)",XMNIXWIUMCBBBL-UHFFFAOYSA-N,CC(C)(OOC(C)(C)c1ccccc1)c2ccccc2,-5.7692
B-265,p-tert-amylphenol,NRZWYNLTFLDQQX-UHFFFAOYSA-N,CCC(C)(C)c1ccc(O)cc1,-2.9902
B-269,"preg-4-ene-3,20-dione, 11-hydroxy-, (11.alpha.)-",BFZHCUBIASXHPK-ODYOLWGQSA-N,CC(=O)C1CC[C@H]2[C@@H]3CCC4=CC(=O)CC[C@]4(C)[C@H]3[C@H](O)C[C@]12C,-3.8202
B-270,chlormezanone,WEQAYVWKMWHEJO-UHFFFAOYSA-N,CN1C(c2ccc(Cl)cc2)[S](=O)(=O)CCC1=O,-2.0394
B-272,musk ketone,WXCMHFPAUCOJIG-UHFFFAOYSA-N,CC(=O)c1c(C)c(c(c(c1C)[N+]([O-])=O)C(C)(C)C)[N+]([O-])=O,-5.1901
B-273,cholic acid,BHQCQFFYRZLCQQ-OELDTZBJSA-N,C[C@H](CCC(O)=O)[C@H]1CC[C@H]2[C@@H]3[C@H](O)C[C@@H]4C[C@H](O)CC[C@]4(C)[C@H]3C[C@H](O)[C@]12C,-3.3682
B-274,purpurin,BBNQQADTFFCFGB-UHFFFAOYSA-N,Oc1cc(O)c2C(=O)c3ccccc3C(=O)c2c1O,-4.6024
B-276,coumachlor,HENZOLWOIZODCT-UHFFFAOYSA-N,CC(=O)CC(c1ccc(Cl)cc1)C2=C(O)Oc3ccccc3C2=O,-5.836
B-277,"benzoic acid, 2- bis(4-hydroxyphenyl)methyl -",FFFPYJTVNSSLBQ-UHFFFAOYSA-N,Oc1ccc(cc1)C(c2ccc(O)cc2)c3ccccc3C(O)=O,-3.2626
B-279,"1-amino-2-methyl-9,10-anthracenedione",ZLCUIOWQYBYEBG-UHFFFAOYSA-N,Cc1ccc2C(=O)c3ccccc3C(=O)c2c1N,-5.8541
B-280,"1,8-anthraquinonedisulfonic acid",IJNPIHLZSZCGOC-UHFFFAOYSA-N,O[S](=O)(=O)c1cccc2C(=O)c3cccc(c3C(=O)c12)[S](O)(=O)=O,1.2572
B-282,cyclizine,UVKZSORBKUEBAZ-UHFFFAOYSA-N,CN1CCN(CC1)C(c2ccccc2)c3ccccc3,-2.4255
B-284,pindone,RZKYEQDPDZUERB-UHFFFAOYSA-N,CC(C)(C)C(=O)C1C(=O)c2ccccc2C1=O,-4.107
B-285,methylprednisolone,VHRSUDSXCMQTMA-PJHHCJLFSA-N,C[C@H]1C[C@H]2[C@@H]3CC[C@](O)(C(=O)CO)[C@@]3(C)C[C@H](O)[C@@H]2[C@@]4(C)C=CC(=O)C=C14,-3.4942
B-286,deoxycholic acid,KXGVEGMKQFWNSR-LLQZFEROSA-N,C[C@H](CCC(O)=O)[C@H]1CC[C@H]2[C@@H]3CC[C@@H]4C[C@H](O)CC[C@]4(C)[C@H]3C[C@H](O)[C@]12C,-3.9544
B-287,"4(1h)-quinolinone, 1-methyl-",CSJAXRKDCCWCSJ-UHFFFAOYSA-N,CN1C=CC(=O)c2ccccc12,-0.9818
B-289,rotenone,JUVIOZPCNVVQFO-HBGVWJBISA-N,COc1cc2OC[C@H]3Oc4c5C[C@@H](Oc5ccc4C(=O)[C@H]3c2cc1OC)C(C)=C,-6.2949
B-290,phytic acid,IMQLKJBTEOYOSI-GPIVLXJGSA-N,O[P](O)(=O)O[C@H]1[C@H](O[P](O)(O)=O)[C@@H](O[P](O)(O)=O)[C@H](O[P](O)(O)=O)[C@@H](O[P](O)(O)=O)[C@H]1O[P](O)(O)=O,0.1804
B-291,riboflavin,AUNGANRZJHBGPY-UHFFFAOYSA-N,Cc1cc2N=C3C(=O)NC(=O)N=C3N(CC(O)C(O)C(O)CO)c2cc1C,-3.6478
B-292,o-terphenyl,OIAQMFOKAXHPNH-UHFFFAOYSA-N,c1ccc(cc1)c2ccccc2c3ccccc3,-5.2692
B-293,quininone,SRFCUPVBYYAMIL-UHFFFAOYSA-N,COc1ccc2nccc(C(=O)C3CC4CCN3CC4C=C)c2c1,-5.0313
B-294,"2,6-dihydroxy-anthraquinone",APAJFZPFBHMFQR-UHFFFAOYSA-N,Oc1ccc2C(=O)c3cc(O)ccc3C(=O)c2c1,-5.8892
B-296,diphenyl phthalate,DWNAQMUDCDVSLT-UHFFFAOYSA-N,O=C(Oc1ccccc1)c2ccccc2C(=O)Oc3ccccc3,-6.5891
B-298,didecyl phthalate,PGIBJVOPLXHHGS-UHFFFAOYSA-N,CCCCCCCCCCOC(=O)c1ccccc1C(=O)OCCCCCCCCCC,-9.3076
B-299,xanthoxyletin,JSJIIHRNDMLJGK-UHFFFAOYSA-N,COc1c2C=CC(=O)Oc2cc3OC(C)(C)C=Cc13,-3.81
B-300,8-chlorotheophylline,RYIGNEOBDRVTHA-UHFFFAOYSA-N,CN1C(=O)N(C)c2nc(Cl)[nH]c2C1=O,-1.5075
B-301,"benzoic acid, 2-(4-chlorobenzoyl)-",YWECCEXWKFHHQJ-UHFFFAOYSA-N,OC(=O)c1ccccc1C(=O)c2ccc(Cl)cc2,-2.7171
B-303,3'-methylphthalanilic acid,AZPJXONNBLOZFE-UHFFFAOYSA-N,Cc1cccc(NC(=O)c2ccccc2C(O)=O)c1,-2.407
B-304,"2,7-naphthalenedisulfonic acid, 1-amino-",JSBQMQFABBMNSV-UHFFFAOYSA-N,Nc1ccc(c2cc(ccc12)[S](O)(=O)=O)[S](O)(=O)=O,-0.2592
B-305,"1,6-naphthalenedisulfonic acid, 4-amino-",QUFFRITXLMVPMV-UHFFFAOYSA-N,Nc1ccc(c2ccc(cc12)[S](O)(=O)=O)[S](O)(=O)=O,-1.643
B-307,diphenylacetonitrile,NEBPTMCRLHKPOB-UHFFFAOYSA-N,N#CC(c1ccccc1)c2ccccc2,-2.9437
B-309,8-quinolinecarboxylic acid,QRDZFPUVLYEQTA-UHFFFAOYSA-N,OC(=O)c1cccc2cccnc12,-1.7447
B-310,"benzaldehyde, 3,4,5-trimethoxy-",OPHQOIGEOHXOGX-UHFFFAOYSA-N,COc1cc(C=O)cc(OC)c1OC,-2.1195
B-311,"benzoic acid, 2-hydroxy-, 3-methylbutyl ester",PMGCQNGBLMMXEW-UHFFFAOYSA-N,CC(C)CCOC(=O)c1ccccc1O,-3.1572
B-312,"benzoic acid, 2-hydroxy-, 2-hydroxyethyl ester",LVYLCBNXHHHPSB-UHFFFAOYSA-N,OCCOC(=O)c1ccccc1O,-1.1567
B-313,n-acetyl-dl-tryptophan,DZTHIGRZJZPRDV-LBPRGKRZSA-M,CC(=O)N[C@@H](Cc1c[nH]c2ccccc12)C([O-])=O,-2.3122
B-314,6-chloropurine,ZKBQDFAWXLTYKS-UHFFFAOYSA-N,Clc1ncnc2nc[nH]c12,-1.4901
B-315,pyrolan,GEDIWDLJKRKBFT-UHFFFAOYSA-N,CN(C)C(=O)Oc1cc(C)nn1c2ccccc2,-2.0886
B-317,2-methyl-6-chlorophenol,YPNZJHFXFVLXSE-UHFFFAOYSA-N,Cc1cccc(Cl)c1O,-0.7739
B-318,"1,2,3-trihydroxybenzene",WQGWDDDVZFFDIG-UHFFFAOYSA-N,Oc1cccc(O)c1O,0.6043
B-320,hexabromobenzene,CAYGQBVSOZLICD-UHFFFAOYSA-N,Brc1c(Br)c(Br)c(Br)c(Br)c1Br,-9.5374
B-321,"1,3,5-trichloroisocyanuric acid",YRIZYWQGELRKNT-UHFFFAOYSA-N,ClN1C(=O)N(Cl)C(=O)N(Cl)C1=O,-1.2871
B-324,"2,4,6-trichlorophenol",LINPIYWFGCPVIE-UHFFFAOYSA-N,Oc1c(Cl)cc(Cl)cc1Cl,-2.3924
B-325,2-acetylthiophene,WYJOVVXUZNRJQY-UHFFFAOYSA-N,CC(=O)c1sccc1,-0.9549
B-327,3-trifluoromethyl-4-nitrophenol,ZEFMBAFMCSYJOO-UHFFFAOYSA-N,Oc1ccc(c(c1)C(F)(F)F)[N+]([O-])=O,-1.6172
B-329,dinoseb,OWZPCEFYPSAJFR-UHFFFAOYSA-N,CCC(C)c1cc(cc(c1O)[N+]([O-])=O)[N+]([O-])=O,-3.6646
B-331,"1,2-benzenedicarboxamide",NAYYNDKKHOIIOD-UHFFFAOYSA-N,NC(=O)c1ccccc1C(N)=O,-2.4371
B-334,"benzeneacetic acid, 2-carboxy-",ZHQLTKAVLJKSKR-UHFFFAOYSA-N,OC(=O)Cc1ccccc1C(O)=O,-1.0515
B-335,4-chloro-2-nitroaniline,PBGKNXWGYQPUJK-UHFFFAOYSA-N,Nc1ccc(Cl)cc1[N+]([O-])=O,-2.538
B-336,4-chloro-2-nitrophenol,NWSIFTLPLKCTSX-UHFFFAOYSA-N,Oc1ccc(Cl)cc1[N+]([O-])=O,-3.0902
B-337,"d-glycero-d-gulo-heptonic acid, .gamma.-lactone",VIVCRCODGMFTFY-UHFFFAOYSA-N,OCC(O)C(O)C1OC(=O)C(O)C1O,0.3348
B-338,chlorothymol,KFZXVMNBUMVKLN-UHFFFAOYSA-N,CC(C)c1cc(Cl)c(C)cc1O,-2.2664
B-343,1-bromonaphthalene,DLKQHBOKULLWDQ-UHFFFAOYSA-N,Brc1cccc2ccccc12,-4.3468
B-344,l-sparteine,SLRCCWJSBJZJBV-ZQDZILKHSA-N,C1CCN2C[C@@H]3C[C@@H](CN4CCCC[C@H]34)[C@@H]2C1,-1.8871
B-345,penicillic acid,VOUGEZYPVGAPBB-UHFFFAOYSA-N,COC(=CC(O)=O)C(=O)C(C)=C,-0.9299
B-346,"d-gluconic acid, .delta.-lactone",PHOQVHQSTUBQQK-UHFFFAOYSA-N,OCC1OC(=O)C(O)C(O)C1O,0.5201
B-347,"4,4-bis(dimethylamino)benzophenone",VVBLNCFGVYUYGU-UHFFFAOYSA-N,CN(C)c1ccc(cc1)C(=O)c2ccc(cc2)N(C)C,-2.8267
B-350,quinoxaline,XSCHRSMBECNVNS-UHFFFAOYSA-N,c1ccc2nccnc2c1,0.7051
B-351,2-naphthylamine,JBIJLHTVPXGSAM-UHFFFAOYSA-N,Nc1ccc2ccccc2c1,-2.8795
B-353,methapyrilene,HNJJXZKZRAWDPF-UHFFFAOYSA-N,CN(C)CCN(Cc1sccc1)c2ccccn2,-2.6383
B-354,4-phenylcatechol,QDNPCYCBQFHNJC-UHFFFAOYSA-N,Oc1ccc(cc1O)c2ccccc2,-2.0659
B-355,m-terphenyl,YJTKZCDBKVTVBY-UHFFFAOYSA-N,c1ccc(cc1)c2cccc(c2)c3ccccc3,-5.183
B-356,tolonium chloride,HNONEKILPDHFOL-UHFFFAOYSA-M,[Cl-].CN(C)c1ccc2nc3cc(C)c(N)cc3[s+]c2c1,-0.9034
B-357,"2,3-naphthalenediol",JRNGUTKWMSBIBF-UHFFFAOYSA-N,Oc1cc2ccccc2cc1O,-2.7377
B-358,"ethanol, 2-(ethylphenylamino)-",HYVGFUIWHXLVNV-UHFFFAOYSA-N,CCN(CCO)c1ccccc1,-1.9171
B-359,"3,6-diaminoacridine",WDVSHHCDHLJJJR-UHFFFAOYSA-N,Nc1ccc2cc3ccc(N)cc3nc2c1,0.3783
B-360,4-acetylbiphenyl,QCZZSANNLWPGEA-UHFFFAOYSA-N,CC(=O)c1ccc(cc1)c2ccccc2,-3.3104
B-361,p-nitrobiphenyl,BAJQRLZAPXASRD-UHFFFAOYSA-N,[O-][N+](=O)c1ccc(cc1)c2ccccc2,-5.2094
B-362,"benzaldehyde, 2,5-dimethoxy-",AFUKNJHPZAVHGQ-UHFFFAOYSA-N,COc1ccc(OC)c(C=O)c1,-2.3202
B-364,2-quinolinecarboxylic acid,LOAUVZALPPNFOQ-UHFFFAOYSA-N,OC(=O)c1ccc2ccccc2n1,-1.0911
B-367,"quinoline, 2,7-dimethyl-",QXKPLNCZSFACPU-UHFFFAOYSA-N,Cc1ccc2ccc(C)nc2c1,-1.9424
B-368,"2-chloro-n,n-diallylacetamide",MDBGGTQNNUOQRC-UHFFFAOYSA-N,ClCC(=O)N(CC=C)CC=C,-0.9452
B-369,"2,4,5-tb",RTWCZQFXFMXXKP-UHFFFAOYSA-N,OC(=O)CCCOc1cc(Cl)c(Cl)cc1Cl,-3.8294
B-370,"1,3-butanedione, 1-phenyl-",CVBUKMMMRLOKQR-UHFFFAOYSA-N,CC(=O)CC(=O)c1ccccc1,-2.6268
B-371,"benzoic acid, anhydride",CHIHQLCVLOXUJW-UHFFFAOYSA-N,O=C(OC(=O)c1ccccc1)c2ccccc2,-4.3546
B-372,"2,4-d, isopropyl ester",WHOKDONDRZNCBC-UHFFFAOYSA-N,CC(C)OC(=O)COc1ccc(Cl)cc1Cl,-3.848
B-373,"benzoic acid, 4-amino-, 2-methylpropyl ester",PUYOAVGNCWPANW-UHFFFAOYSA-N,CC(C)COC(=O)c1ccc(N)cc1,-2.9437
B-374,parethoxycaine,OWWVHQUOYSPNNE-UHFFFAOYSA-N,CCOc1ccc(cc1)C(=O)OCCN(CC)CC,-2.7145
B-376,pralidoxime iodide [usan:inn:jan],QNBVYCDYFJUNLO-UHDJGPCESA-N,[I-].CN1C=CC=C\C1=C/[NH+]=O,-0.7405
B-377,"2,4-d, butyl ester",UQMRAFJOBWOFNS-UHFFFAOYSA-N,CCCCOC(=O)COc1ccc(Cl)cc1Cl,-3.78
B-378,mcpb,LLWADFLAOKUBDR-UHFFFAOYSA-N,Cc1cc(Cl)ccc1OCCCC(O)=O,-3.678
B-379,"2,4-deb",LGURYBCSJPXHTF-UHFFFAOYSA-N,Clc1ccc(OCCOC(=O)c2ccccc2)c(Cl)c1,-3.8118
B-380,"2-ethyl-1,3-hexandiol",RWLALWYNXFYRGW-UHFFFAOYSA-N,CCCC(O)C(CC)CO,-0.5418
B-382,triethylene glycol bis(2-ethylbutyrate),JEYLQCXBYFQJRO-UHFFFAOYSA-N,CCC(CC)C(=O)OCCOCCOCCOC(=O)C(CC)CC,-3.2386
B-383,dimethyl glyoxime,OFZZNQXYRRSXOI-ARJAWSKDSA-N,C\C(NO)=C(/C)N=O,-2.2868
B-384,"3,4-xylidine",DOLQYFPDPKPQSS-UHFFFAOYSA-N,Cc1ccc(N)cc1C,-1.5036
B-386,"3,4-dichlorophenol",WDNBURPWRNALGP-UHFFFAOYSA-N,Oc1ccc(Cl)c(Cl)c1,-1.2458
B-387,ethyl oxalate,WYACBZDAHNBPPB-UHFFFAOYSA-N,CCOC(=O)C(=O)OCC,-0.6085
B-389,"2,3-dibromo-1-propanol",QWVCIORZLNBIIC-UHFFFAOYSA-N,OCC(Br)CBr,-0.6222
B-390,"1,2,3-trichloropropane",CFXQEHVMCRXUSD-UHFFFAOYSA-N,ClCC(Cl)CCl,-1.9255
B-391,2-amino-1-butanol,JCBPETKZIGVZRE-UHFFFAOYSA-N,CCC(N)CO,1.0499
B-392,"3-chloro-1,2-propanediol",SSZWWUDQMAHNAQ-UHFFFAOYSA-N,OCC(O)CCl,0.9565
B-393,2-butanone oxime,WHIVNJATOVLWBW-SNAWJCMRSA-N,CC\C(C)=N\O,0.0599
B-395,2-methyltetrahydrofuran,JWUJQDFVADABEY-UHFFFAOYSA-N,CC1CCCO1,0.2069
B-398,soman,GRXKLBBBQUKJJZ-UHFFFAOYSA-N,CC(O[P](C)(F)=O)C(C)(C)C,-0.9383
B-400,2-(bis(1-methylethyl)amino)ethanol,ZYWUVGFIXPNBDL-UHFFFAOYSA-N,CC(C)N(CCO)C(C)C,-1.0829
B-401,"l-valine, n-acetyl-",IHYJTAOFMMMOPX-LURJTMIESA-N,CC(C)[C@H](NC(C)=O)C(O)=O,-0.3599
B-404,"phenol, 2,2'-thiobis 4,6-dichloro-",JFIOVJDNOJYLKP-UHFFFAOYSA-N,Oc1c(Cl)cc(Cl)cc1Sc2cc(Cl)cc(Cl)c2O,-4.9495
B-407,"pentanoic acid, 2-methyl-",OVBFMEVBMNZIBR-UHFFFAOYSA-N,CCCC(C)C(O)=O,-0.889
B-408,ethyl lactate,LZCLXQDLBQLTDK-UHFFFAOYSA-N,CCOC(=O)C(C)O,0.9276
B-410,isobutyl isobutyrate,RXGUIWHIADMCFC-UHFFFAOYSA-N,CC(C)COC(=O)C(C)C,-2.159
B-413,2-hydroxymethylfuran,XPFVYQJUAUNWIW-UHFFFAOYSA-N,OCc1occc1,1.0083
B-415,"1,2-benzenediol, 4-(1,1-dimethylethyl)-",XESZUVZBAMCAEJ-UHFFFAOYSA-N,CC(C)(C)c1ccc(O)c(O)c1,-1.9197
B-419,alpha-terpineol,WUOACPNHFRMFPN-VIFPVBQESA-N,CC1=CC[C@@H](CC1)C(C)(C)O,-2.337
B-420,"benzenesulfonyl chloride, 4-iodo-",POXFXTSTVWDWIR-UHFFFAOYSA-N,Cl[S](=O)(=O)c1ccc(I)cc1,-4.2686
B-422,alpha-methylbenzyl alcohol,WAPNOHKVXSQRPX-UHFFFAOYSA-N,CC(O)c1ccccc1,-1.7969
B-423,(dichloromethyl)benzene,CAHQGWAXKLQREW-UHFFFAOYSA-N,ClC(Cl)c1ccccc1,-2.809
B-424,picolinic acid,SIOXPEMLGUPBBT-UHFFFAOYSA-N,OC(=O)c1ccccn1,0.892
B-425,populin,HHSKNLJWHGXWPK-BFMVXSJESA-N,OCc1ccccc1O[C@@H]2O[C@H](COC(=O)c3ccccc3)[C@@H](O)[C@H](O)[C@H]2O,-2.8925
B-426,methyl gallate,FBSFWRHWHYMIOG-UHFFFAOYSA-N,COC(=O)c1cc(O)c(O)c(O)c1,-1.2399
B-427,"2,6-dichloro-4-nitroaniline",BIXZHMJUSMUDOQ-UHFFFAOYSA-N,Nc1c(Cl)cc(cc1Cl)[N+]([O-])=O,-4.4709
B-428,"4-oxo-4h-pyran-2,6-dicarboxylic acid",PBAYDYUZOSNJGU-UHFFFAOYSA-N,OC(=O)C1=CC(=O)C=C(O1)C(O)=O,-1.1097
B-429,carvone,ULDHMXUKGWMISQ-UHFFFAOYSA-N,CC(=C)C1CC=C(C)C(=O)C1,-2.0628
B-432,p-(sec-butyl)phenol,ZUTYZAFDFLLILI-UHFFFAOYSA-N,CCC(C)c1ccc(O)cc1,-2.1945
B-434,gamma-terpinene,YKFLAYDHMOASIY-UHFFFAOYSA-N,CC(C)C1=CCC(=CC1)C,-4.1958
B-436,terephthalic acid,KKEYFWRCBNTPAC-UHFFFAOYSA-N,OC(=O)c1ccc(cc1)C(O)=O,-4.0444
B-437,2-(diethylamino)-ethanol,BFSVOASYOCHEOV-UHFFFAOYSA-N,CCN(CC)CCO,0.9311
B-440,4-cyanopyridine,GPHQHTOMRSGBNZ-UHFFFAOYSA-N,N#Cc1ccncc1,-0.4154
B-441,3-cyanopyridine,GZPHSAQLYPIAIN-UHFFFAOYSA-N,N#Cc1cccnc1,0.1128
B-444,tetrahydropyran-2-methanol,ROTONRWJLXYJBD-UHFFFAOYSA-N,OCC1CCCCO1,0.9349
B-445,4-ethylmorpholine,HVCNXQOWACZAFN-UHFFFAOYSA-N,CCN1CCOCC1,0.9386
B-447,cloprop,YNTJKQDWYXUTLZ-UHFFFAOYSA-N,CC(Oc1cccc(Cl)c1)C(O)=O,-2.2232
B-450,hyoscyamine,RKUNBYITZUJHSG-VFSICIBPSA-N,CN1[C@@H]2CC[C@H]1CC(C2)OC(=O)[C@H](CO)c3ccccc3,-1.91
B-451,4-hydroxydiphenylmethane,HJSPWKGEPDZNLK-UHFFFAOYSA-N,Oc1ccc(Cc2ccccc2)cc1,-3.4009
B-454,"diphenylurea, sym",GWEHVDNNLFDJLR-UHFFFAOYSA-N,O=C(Nc1ccccc1)Nc2ccccc2,-3.1508
B-455,"1,3,5-triethylbenzene",WJYMPXJVHNDZHD-UHFFFAOYSA-N,CCc1cc(CC)cc(CC)c1,-7.0641
B-456,"methanediamine, n,n,n',n'-tetraethyl-",UNEXJVCWJSHFNN-UHFFFAOYSA-N,CCN(CC)CN(CC)CC,-0.1995
B-457,entprol,NSOXQYCFHDMMGV-UHFFFAOYSA-N,CC(O)CN(CCN(CC(C)O)CC(C)O)CC(C)O,0.534
B-458,triallylamine,VPYJNCGUESNPMV-UHFFFAOYSA-N,C=CCN(CC=C)CC=C,-1.7395
B-461,tri n-butylamine,IMFACGCPASFAPR-UHFFFAOYSA-N,CCCCN(CCCC)CCCC,-3.1157
B-464,(2-bromoethyl)benzene,WMPPDTMATNBGJN-UHFFFAOYSA-N,BrCCc1ccccc1,-3.6757
B-465,n-methylbenzylamine,RIWRFSMVIUAEBX-UHFFFAOYSA-N,CNCc1ccccc1,0.9166
B-468,4-methylacetanilide,YICAMJWHIUMFDI-UHFFFAOYSA-N,CC(=O)Nc1ccc(C)cc1,-2.0946
B-470,thiacetazone,SRVJKTDHMYAMHA-WUXMJOGZSA-N,CC(=O)Nc1ccc(cc1)/C=N/NC(N)=S,-3.429
B-471,p-toluenesulfonic acid,JOXIMZWYDAKGHI-UHFFFAOYSA-N,Cc1ccc(cc1)[S](O)(=O)=O,0.5564
B-472,"2-propenoic acid, 3-(4-methoxyphenyl)-, 2-ethoxy",CMDKPGRTAQVGFQ-RMKNXTFCSA-N,CCOCCOC(=O)/C=C/c1ccc(OC)cc1,-2.6995
B-473,chlorphenesin,MXOAEAUPQDYUQM-UHFFFAOYSA-N,OCC(O)COc1ccc(Cl)cc1,-1.3067
B-476,1-phenyldecane,UZILCZKGXMQEQR-UHFFFAOYSA-N,CCCCCCCCCCc1ccccc1,-7.959
B-478,"2,5-tetrahydrofurandimethanol",YCZZQSFWHFBKMU-UHFFFAOYSA-N,OCC1CCC(CO)O1,0.8789
B-484,1-hexyn-3-ol,LTFTWJYRQNTCHI-UHFFFAOYSA-N,CCCC(O)C#C,-0.4121
B-485,ethyl chloroacetate,VEUUMBGHMNQHGO-UHFFFAOYSA-N,CCOC(=O)CCl,-0.8005
B-486,methyl acetoacetate,WRQNANDWMGAFTP-UHFFFAOYSA-N,COC(=O)CC(C)=O,0.6341
B-487,s-butylacetate,DCKVNWZUADLDEH-UHFFFAOYSA-N,CCC(C)OC(C)=O,-1.2727
B-491,"butanoic acid, 1,2-ethanediyl ester",SFTRWCBAYKQWCS-UHFFFAOYSA-N,CCCC(=O)OCCOC(=O)CCC,-2.6069
B-493,"hexanedioic acid, bis(2-methoxyethyl) ester",GVRNUDCCYWKHMV-UHFFFAOYSA-N,COCCOC(=O)CCCCC(=O)OCCOC,-1.2665
B-496,ethyl heptanoate,TVQGDYNRXLTQAP-UHFFFAOYSA-N,CCCCCCC(=O)OCC,-2.7369
B-497,ethyl octanoate,YYZUSRORWSJGET-UHFFFAOYSA-N,CCCCCCCC(=O)OCC,-3.3907
B-498,quinhydrone,BDJXVNRFAQSMAA-UHFFFAOYSA-N,Oc1ccc(O)cc1.O=C2C=CC(=O)C=C2,-1.7305
B-499,3-heptanone,NGAZZOYFWWSOGK-UHFFFAOYSA-N,CCCCC(=O)CC,-1.4242
B-501,"2,5-piperazinedione",BXRNXXXXHLBUKK-UHFFFAOYSA-N,O=C1CNC(=O)CN1,-0.8312
B-502,"1-propanol, 2-(2-hydroxypropoxy)-",DUFKCOQISQKSAV-UHFFFAOYSA-N,CC(O)COC(C)CO,0.8723
B-504,3-octanone,RHLVCLIPMVJYKS-UHFFFAOYSA-N,CCCCCC(=O)CC,-1.693