ID,Name,InChIKey,SMILES,Solubility
A-2708,"3-hydroxy-2,2-dimethylpropyl heptanoate",VRYUGRNJSPQWJC-UHFFFAOYSA-N,CCCCCCC(O)=O.CC(C)(CO)CO,-6.6708690081
A-2709,3-hydroxy-2-(hydroxymethyl)-2-{[(9Z)-octadec-9-enoyloxy]methyl}propyl (9Z)-octadec-9-enoate,BJXXCOMGRRCAGN-XPWSMXQVSA-N,CCCCCCCC/C=C/CCCCCCCC(=O)OCC(CO)(CO)COC(=O)CCCCCCC\C=C\CCCCCCCC,-7.1238862525
A-2710,3-methylbutyl dodecanoate,FVKRIDSRWFEQME-UHFFFAOYSA-N,CCCCCCCCCCCC(=O)OCCC(C)C,-6.733128222
A-2712,"Decanoic acid, mixed diesters with octanoic acid and propylene glycol",YZWQUQVFVLJWCS-UHFFFAOYSA-N,CCCCCCCCCC(O)=O.CCCCCCCC(O)=O.CC(O)CO,-6.8949548476
A-2713,"Decanoic acid, mixed esters with octanoic acid and pentaerythritol",GFFYVKLAGBXHIN-UHFFFAOYSA-N,CCCCCCCCCC(O)=O.CCCCCCCC(O)=O.OCC(CO)(CO)CO,-6.9567723715
A-2714,"Fatty acids, C5-9, hexaesters with dipentaerythritol",ITJIINAVMOBHSF-UHFFFAOYSA-N,CCCCC(=O)OCC(CO)(CO)COCC(CO)(CO)CO,-6.8304564999
A-2715,"N,N'-bis(2,6-diisopropylphenyl)carbodiimide",XLDBGFGREOMWSL-UHFFFAOYSA-N,CC(C)c1cccc(C(C)C)c1N=C=Nc2c(cccc2C(C)C)C(C)C,-6.8604110817
A-2718,butyl hexadecanoate butyl octadecanoate,FQWCYZXAJQAXBD-UHFFFAOYSA-N,CCCCCCCCCCCCCCCCCC(=O)OCCCC.CCCCCCCCCCCCCCCC(=O)OCCCC,-7.1160296282
A-2720,diisodecyl azelate,WLLCYXDFVBWGBU-UHFFFAOYSA-N,CC(C)CCCCCCCOC(=O)CCCCCCCC(=O)OCCCCCCCC(C)C,-6.9719833207
A-2721,ditetradecyl but-2-enedioate,DYVHFPDDBMMBAX-BYYHNAKLSA-N,CCCCCCCCCCCCCCOC(=O)\C=C\C(=O)OCCCCCCCCCCCCCC,-7.0076009975
A-2722,docosanamide,ORAWFNKFUWGRJG-UHFFFAOYSA-N,CCCCCCCCCCCCCCCCCCCCCC(N)=O,-6.8320079078
A-2723,docosyl docosanoate,NJIMZDGGLTUCPX-UHFFFAOYSA-N,CCCCCCCCCCCCCCCCCCCCCCOC(=O)CCCCCCCCCCCCCCCCCCCCC,-7.1133991412
A-2724,dodecyl (9Z)-octadec-9-enoate,OXPCWUWUWIWSGI-WUKNDPDISA-N,CCCCCCCCCCCCOC(=O)CCCCCCC\C=C\CCCCCCCC,-6.9550061959
A-2725,ethyl (9Z)-hexadec-9-enoate ethyl (9Z)-octadec-9-enoate ethyl hexadecanoate ethyl tetradecanoate,RYYGJLVSNHAPGS-KHGNKIMXSA-N,CCCCCCCCCCCCCCCC(=O)OCC.CCCCCCCCCCCCCC(=O)OCC.CCCCCCCC\C=C/CCCCCCCC(=O)OCC.CCCCCC\C=C/CCCCCCCC(=O)OCC,-7.355606283
A-2726,hexadecyl 2-ethylhexanoate,XJNUECKWDBNFJV-UHFFFAOYSA-N,CCCCCCCCCCCCCCCCOC(=O)C(CC)CCCC,-6.8676395216
A-2727,hexyl dodecanoate,CMBYOWLFQAFZCP-UHFFFAOYSA-N,CCCCCCCCCCCC(=O)OCCCCCC,-6.7550878414
A-2728,"isooctadecanoic acid, monoester with glycerol",MQXVQTFGCRTCRG-UHFFFAOYSA-N,CC(C)CCCCCCCCCCCCCCC(=O)OC(CO)CO,-6.8555954685
A-2729,magnesium diniobate,CWMQWEHVVUJOBW-UHFFFAOYSA-N,[O--].[O--].[O--].[O--].[O--].[O--].[O--].[Mg++].[Mg++].[Nb+5].[Nb+5],-6.8406266847
A-2730,octadec-9-en-1-yl docos-13-enoate,SZAMSYKZCSDVBH-CLFAGFIQSA-N,CCCCCCCC\C=C/CCCCCCCCCCCC(=O)OCCCCCCCC\C=C/CCCCCCCC,-7.0711792069
A-2731,octadec-9-en-1-yl octadec-9-enoate,ZWHZXVJDSAKMBA-MGXYOJEMSA-N,CCCCCCCCC\C=C/CCCCCCC(=O)OCCCCCCCC\C=C/CCCCCCCC,-7.0277066834
A-2732,octyl octanoate,DJNTZVRUYMHBTD-UHFFFAOYSA-N,CCCCCCCCOC(=O)CCCCCCC,-6.709998828
A-2733,tetradecyl octadec-9-enoate,DHZWALZKPWZSMA-ZCXUNETKSA-N,CCCCCCCCCCCCCCOC(=O)CCCCCCC\C=C/CCCCCCCC,-6.9812258596
A-2734,"tris(2-ethylhexyl) 2-acetoxypropane-1,2,3-tricarboxylate",FRDNONBEXWDRDM-UHFFFAOYSA-N,CCCCC(CC)COC(=O)CC(CC(=O)OCC(CC)CCCC)(OC(C)=O)C(=O)OCC(CC)CCCC,-7.0575200469
A-2736,"2-(2H-1,2,3-benzotriazol-2-yl)-4,6-bis(2-phenylpropan-2-yl)phenol",OLFNXLXEGXRUOI-UHFFFAOYSA-N,CC(C)(c1ccccc1)c2cc(n3nc4ccccc4n3)c(O)c(c2)C(C)(C)c5ccccc5,-7.0488126213
A-2737,"4,4',4''-butane-1,1,3-triyltris(2-tert-butyl-5-methylphenol)",PRWJPWSKLXYEPD-UHFFFAOYSA-N,CC(CC(c1cc(c(O)cc1C)C(C)(C)C)c2cc(c(O)cc2C)C(C)(C)C)c3cc(c(O)cc3C)C(C)(C)C,-7.1341930505
A-2738,"4-[(E)-2-(5-cyano-2-hydroxy-1,4-dimethyl-6-oxo-1,6-dihydropyridin-3-yl)diazen-1-yl]-N-(2-ethylhexyl)benzamide",ATCLRTKFQOUIKP-OOAXWGSJSA-N,CCCCC(CC)CNC(=O)c1ccc(N\N=C2\C(=C(C#N)C(=O)N(C)C2=O)C)cc1,-7.0248108563
A-2739,"5-[(E)-2-(3,4-dichlorophenyl)diazen-1-yl]-6-hydroxy-1,4-dimethyl-2-oxo-1,2-dihydropyridine-3-carbonitrile",XJQKXIISBODNEJ-XDHOZWIPSA-N,CN1C(=O)C(=N/Nc2ccc(Cl)c(Cl)c2)/C(=C(C#N)C1=O)C,-6.9257837823
A-2740,"tris[(3,5-di-tert-butyl-4-hydroxyphenyl)methyl]-1,3,5-triazinane-2,4,6-trione",VNQNXQYZMPJLQX-UHFFFAOYSA-N,CC(C)(C)c1cc(CN2C(=O)N(Cc3cc(c(O)c(c3)C(C)(C)C)C(C)(C)C)C(=O)N(Cc4cc(c(O)c(c4)C(C)(C)C)C(C)(C)C)C2=O)cc(c1O)C(C)(C)C,-7.2923086931
A-2741,2-benzoyl-5-[3-(4-benzoyl-3-hydroxyphenoxy)-2-hydroxypropoxy]phenol,VZYBFCDYFROPPK-UHFFFAOYSA-N,OC(COc1ccc(c(O)c1)C(=O)c2ccccc2)COc3ccc(c(O)c3)C(=O)c4ccccc4,-7.1387547034
A-2742,(2-methyldodecyl)(tridecyl)amine; ditridecylamine,MQIFMNUVBUCDBA-UHFFFAOYSA-N,CCCCCCCCCCCCCNCCCCCCCCCCCCC.CCCCCCCCCCCCCNCC(C)CCCCCCCCCC,-7.4056684463
A-2743,"(E)-N,6,6-trimethyl-N-(naphthalen-1-ylmethyl)hept-2-en-4-yn-1-amine",DOMXUEMWDBAQBQ-WEVVVXLNSA-N,CN(C\C=C\C#CC(C)(C)C)Cc1cccc2ccccc12,-4.4645461779
A-2744,2-methyl-2-[(2-methylundecan-2-yl)disulfanyl]undecane,LEDIWWJKWAMGLD-UHFFFAOYSA-N,CCCCCCCCCC(C)(C)SSC(C)(C)CCCCCCCCC,-7.1279660508
A-2745,bis(2-ethylhexyl) carbonate,PXTQQOLKZBLYDY-UHFFFAOYSA-N,CCCCC(CC)COC(=O)OCC(CC)CCCC,-6.9799366685
A-2747,dibenzyl {[bis(benzyloxy)phosphoryl]oxy}phosphonate,NSBNXCZCLRBQTA-UHFFFAOYSA-N,O=[P](OCc1ccccc1)(OCc2ccccc2)O[P](=O)(OCc3ccccc3)OCc4ccccc4,-7.2540426772
A-2748,4-(4-{2-[4-(4-aminophenoxy)phenyl]propan-2-yl}phenoxy)aniline,KMKWGXGSGPYISJ-UHFFFAOYSA-N,CC(C)(c1ccc(Oc2ccc(N)cc2)cc1)c3ccc(Oc4ccc(N)cc4)cc3,-7.1917272196
A-2750,(benzoyloxy)(hydroxy)alumanyl octadecanoate,PMWKMVGWLYXGLN-UHFFFAOYSA-K,CCCCCCCCCCCCCCCCCC(=O)O[Al](O)OC(=O)c1ccccc1,-7.2538998979
A-2751,"3-(Diethylamino)-7-oxo-7H-(1)benzopyrano(3',2':3,4)pyrido(1,2-a)benzimidazole-6-carbonitrile",UTTFXJZCRVZYQF-UHFFFAOYSA-N,CCN(CC)c1ccc2C=C3C(=C(C#N)C(=O)n4c5ccccc5nc34)Oc2c1,-7.2023327624
A-2752,"N-{2-[(E)-2-(2,6-dicyano-4-methylphenyl)diazen-1-yl]-5-(diethylamino)phenyl}methanesulfonamide",NSLHLMXJNOITEZ-UHFFFAOYSA-N,CCN(CC)c1ccc(N=Nc2c(cc(C)cc2C#N)C#N)c(N[S](C)(=O)=O)c1,-7.2331050936
A-2753,"methyl (9E,12E,15E)-octadeca-9,12,15-trienoate methyl (9Z)-octadec-9-enoate methyl (9Z,12Z)-octadeca-9,12-dienoate methyl hexadecanoate methyl octadecanoate",SWOKSHSHKMKETQ-WIBNQTOSSA-N,CCCCCCCCCCCCCCCCCC(=O)OC.CCCCCCCCCCCCCCCC(=O)OC.CCCCCCCC\C=C/CCCCCCCC(=O)OC.CCCCC/C=C\C\C=C/CCCCCCCC(=O)OC.CC/C=C/C/C=C/C/C=C/CCCCCCCC(=O)OC,-7.8003598993
A-2754,2-[[4-[(2-cyano-3-nitrophenyl)azo]-m-tolyl](2-acetoxyethyl)amino]ethyl acetate,GRMDKKJYMUDEJO-UHFFFAOYSA-N,CC(=O)OCCN(CCOC(C)=O)c1ccc(cc1)N=Nc2ccc(cc2C#N)[N+]([O-])=O,-7.3004650455
A-2755,"1-bromo-1,1,2,2,3,3,4,4,5,5,6,6,7,7,8,8,8-heptadecafluorooctane",WTWWXOGTJWMJHI-UHFFFAOYSA-N,FC(F)(F)C(F)(F)C(F)(F)C(F)(F)C(F)(F)C(F)(F)C(F)(F)C(F)(F)Br,-7.3970339946
A-2756,3-[ethyl[4-[(4-nitrophenyl)azo]phenyl]amino]propiononitrile,ZSPPPAFDNHYXNW-UHFFFAOYSA-N,CCN(CCC#N)c1ccc(cc1)N=Nc2ccc(cc2)[N+]([O-])=O,-7.2086509282
A-2757,Pigment red 149,FDXVHZCFTCIKDD-UHFFFAOYSA-N,Cc1cc(C)cc(c1)N2C(=O)c3ccc4c5ccc6C(=O)N(c7cc(C)cc(C)c7)C(=O)c8ccc(c9ccc(C2=O)c3c49)c5c68,-7.4761487948
A-2759,ammonium iron(3+) hexakis(cyano-C)ferrate(4-),ILZWGESBVHGTRX-UHFFFAOYSA-O,[NH4+].[Fe++].[Fe+3].[C-]#N.[C-]#N.[C-]#N.[C-]#N.[C-]#N.[C-]#N,-7.1550884494
A-2760,"Methyl 3-[n-ethyl-4-[(5-nitro-2,1-benzothiazol-3-yl)azo]anilino]propanoate",VHLFTCNAACYPDY-UHFFFAOYSA-N,CCN(CCC(=O)OC)c1ccc(cc1)N=Nc2snc3ccc(cc23)[N+]([O-])=O,-7.3154024542
A-2761,tetradecyl tetradecanoate,DZKXJUASMGQEMA-UHFFFAOYSA-N,CCCCCCCCCCCCCCOC(=O)CCCCCCCCCCCCC,-7.3271074817
A-2762,"trans-4-ethyl-4'-(4-propylcyclohexyl)-1,1'-biphenyl",DOALOUQODWWGEZ-UHFFFAOYSA-N,CCCC1CCC(CC1)c2ccc(cc2)c3ccc(CC)cc3,-7.1853905644
A-2763,trixylyl phosphate,LLPMAOBOEQFPRE-UHFFFAOYSA-N,Cc1cc(C)cc(O[P](=O)(Oc2cc(C)cc(C)c2)Oc3cc(C)cc(C)c3)c1,-7.3122302643
A-2764,"beta,beta-carotene",OENHQHLEOONYIE-JLTXGRSLSA-N,CC1=C(\C=C\C(C)=C\C=C\C(C)=C\C=C\C=C(C)\C=C\C=C(C)\C=C\C2=C(C)CCCC2(C)C)C(C)(C)CCC1,-7.5537924381
A-2765,hafnium,VBJZVLUMGGDVMO-UHFFFAOYSA-N,[Hf],-7.1724326435
A-2766,hafnium dioxide,WIHZLLGSGQNAGK-UHFFFAOYSA-N,[O--].[O--].[Hf+4],-7.2440460955
A-2767,(13Z)-N-octadecyldocos-13-enamide,FUSNPOOETKRESL-ZPHPHTNESA-N,CCCCCCCCCCCCCCCCCCNC(=O)CCCCCCCCCCC\C=C/CCCCCCCC,-7.770909423
A-2768,"(2R)-5-amino-2-(dibenzylamino)-1,6-diphenylhex-4-en-3-one",IVYLNCUETJNNJU-WJOKGBTCSA-N,NC(Cc1ccccc1)=CC(=O)[C@@H](Cc2ccccc2)N(Cc3ccccc3)Cc4ccccc4,-7.6633437338
A-2769,(Z)-N-octadec-9-enylhexadecan-1-amide,VMRGZRVLZQSNHC-ZCXUNETKSA-N,CCCCCCCCCCCCCCCC(=O)NCCCCCCCC\C=C/CCCCCCCC,-7.7040784145
A-2771,"1H-Pyrazole-3-carboxylic acid, 4,5-dihydro-5-oxo-1-(4-sulfophenyl)-4-[(4-sulfophenyl)azo]-, reaction products with guanidine hydrochloride N,N'-bis(mixed Ph, tolyl and xylyl) derivs.",BHAUFROZPICYNL-UHFFFAOYSA-N,[H+].[Cl-].NC(N)=N.OC(=O)C1=NN(c2ccc(cc2)[S](O)(=O)=O)C(=O)C1N=Nc3ccc(cc3)[S](O)(=O)=O,-7.7512467617
A-2772,"3-(3,5-di-tert-butyl-4-hydroxyphenyl)-N-octadecylpropanamide",HQSOHEURLMFXBX-UHFFFAOYSA-N,CCCCCCCCCCCCCCCCCCNC(=O)CCc1cc(c(O)c(c1)C(C)(C)C)C(C)(C)C,-7.724189002
A-2773,"3-(3,5-di-tert-butyl-4-hydroxyphenyl)-N-{6-[3-(3,5-di-tert-butyl-4-hydroxyphenyl)propanamido]hexyl}propanamide",OKOBUGCCXMIKDM-UHFFFAOYSA-N,CC(C)(C)c1cc(CCC(=O)NCCCCCCNC(=O)CCc2cc(c(O)c(c2)C(C)(C)C)C(C)(C)C)cc(c1O)C(C)(C)C,-7.8041135239
A-2775,4-chloro-2-(2-chlorobenzoyl)aniline,KWZYIAJRFJVQDO-UHFFFAOYSA-N,Nc1ccc(Cl)cc1C(=O)c2ccccc2Cl,-7.4250889383
A-2776,4-{4-[(diphenoxyphosphoryl)oxy]phenyl}phenyl diphenyl phosphate,GXLTXCWSKKOKIR-UHFFFAOYSA-N,O=[P](Oc1ccccc1)(Oc2ccccc2)Oc3ccc(cc3)c4ccc(O[P](=O)(Oc5ccccc5)Oc6ccccc6)cc4,-7.813287357
A-2777,Pigment red 178,PXUJYZVHENREBB-UHFFFAOYSA-N,O=C1N(c2ccc(cc2)N=Nc3ccccc3)C(=O)c4ccc5c6ccc7C(=O)N(c8ccc(cc8)N=Nc9ccccc9)C(=O)c%10ccc(c%11ccc1c4c5%11)c6c7%10,-7.8755092242
A-2778,"N-(10-benzamido-6,13-diacetamido-2,9-diethoxy-5,12-dioxa-7,14-diazapentacen-3-yl)benzamide",RVIBUAHWQKVQEF-UHFFFAOYSA-N,CCOc1cc2N=C3C(=C4Oc5cc(NC(=O)c6ccccc6)c(OCC)cc5N=C4C(=C3Oc2cc1NC(=O)c7ccccc7)NC(C)=O)NC(C)=O,-7.8613826501
A-2779,N-octadecyloctadecanamide,DJWFNQUDPJTSAD-UHFFFAOYSA-N,CCCCCCCCCCCCCCCCCCNC(=O)CCCCCCCCCCCCCCCCC,-7.729153446
A-2781,aluminium(3+) ion borate,OJMOMXZKOWKUTA-UHFFFAOYSA-N,[Al+3].[O-]B([O-])[O-],-6.9334417301
A-2783,nitriloborane,PZNSFCLAULLKQX-UHFFFAOYSA-N,B#N,-6.394784279
A-2785,"4-({3,5-bis[(2,6-di-tert-butyl-4-hydroxyphenyl)methyl]-2,4,6-trimethylphenyl}methyl)-3,5-di-tert-butylphenol",VSAWBBYYMBQKIK-UHFFFAOYSA-N,Cc1c(Cc2cc(c(O)c(c2)C(C)(C)C)C(C)(C)C)c(C)c(Cc3cc(c(O)c(c3)C(C)(C)C)C(C)(C)C)c(C)c1Cc4cc(c(O)c(c4)C(C)(C)C)C(C)(C)C,-7.9814736459
A-2788,4-(2-phenylpropan-2-yl)-N-[4-(2-phenylpropan-2-yl)phenyl]aniline,UJAWGGOCYUPCPS-UHFFFAOYSA-N,CC(C)(c1ccccc1)c2ccc(Nc3ccc(cc3)C(C)(C)c4ccccc4)cc2,-7.7820070821
A-2789,"2-[7-(diethylamino)-2-oxo-2H-chromen-3-yl]-1,3-benzoxazole-5-sulfonamide",SDUIURJVOCHJCO-UHFFFAOYSA-N,CCN(CC)c1ccc2C=C(C(=O)Oc2c1)c3oc4ccc(cc4n3)[S](N)(=O)=O,-7.8310984133
A-2790,Indanthrene,UHOKSCJSTAHBSO-UHFFFAOYSA-N,O=C1c2ccccc2C(=O)c3c4Nc5ccc6C(=O)c7ccccc7C(=O)c6c5Nc4ccc13,-7.9468745633
A-2792,3-{3-[(2-ethylhexyl)oxy]propyl}-1-{5-[({3-[(2-ethylhexyl)oxy]propyl}carbamoyl)amino]naphthalen-1-yl}urea,NZJJSYLOGZGJHU-UHFFFAOYSA-N,CCCCC(CC)COCCCNC(=O)Nc1cccc2c(NC(=O)NCCCOCC(CC)CCCC)cccc12,-8.0680715196
A-2794,"2-[9-(1-{[3-(3-tert-butyl-4-hydroxy-5-methylphenyl)propanoyl]oxy}-2-methylpropan-2-yl)-2,4,8,10-tetraoxaspiro[5.5]undecan-3-yl]-2-methylpropyl 3-(3-tert-butyl-4-hydroxy-5-methylphenyl)propanoate",CGRTZESQZZGAAU-UHFFFAOYSA-N,Cc1cc(CCC(=O)OCC(C)(C)[CH]2OC[C]3(CO2)CO[CH](OC3)C(C)(C)COC(=O)CCc4cc(C)c(O)c(c4)C(C)(C)C)cc(c1O)C(C)(C)C,-8.2677435641
A-2795,"titanium(4+) ion bis(2,6-difluoro-3-(1H-pyrrol-1-yl)benzen-1-ide) bis(cyclopenta-2,4-dien-1-ide)",UWVBGISRTRNOCI-UHFFFAOYSA-N,[Ti+4].Fc1ccc(N2C=C[C-]=C2)c(F)c1.Fc3ccc(N4C=C[C-]=C4)c(F)c3.[cH-]5cccc5.[cH-]6cccc6,-8.1257893916
A-2796,"3-(1,3-benzothiazol-2-yl)-7-(diethylamino)-2-oxo-2H-chromene-4-carbonitrile",NDKYYKABKLOOAP-UHFFFAOYSA-N,CCN(CC)c1ccc2c(OC(=O)C(=C2C#N)c3sc4ccccc4n3)c1,-8.0974343241
A-2797,4-(2-{4-[2-(3-cyanophenyl)ethenyl]phenyl}ethenyl)benzonitrile,XSPWINZRSAKTKX-UHFFFAOYSA-N,N#Cc1ccc(C=Cc2ccc(cc2)C=Cc3cccc(c3)C#N)cc1,-8.1237288456
A-2798,2-[(E)-2-(2-methoxy-4-{3-methoxy-4-[(E)-2-[2-oxo-1-(phenylcarbamoyl)propyl]diazen-1-yl]phenyl}phenyl)diazen-1-yl]-3-oxo-N-phenylbutanamide,DMPXHEMGDYKSFL-UHFFFAOYSA-N,COc1cc(ccc1N=NC(C(C)=O)C(=O)Nc2ccccc2)c3ccc(N=NC(C(C)=O)C(=O)Nc4ccccc4)c(OC)c3,-8.6167666964
A-2801,tris(2-ethylhexyl) phosphate,GTVWRXDRKAHEAD-UHFFFAOYSA-N,CCCCC(CC)CO[P](=O)(OCC(CC)CCCC)OCC(CC)CCCC,-8.85998044
A-2802,"2-(diphenyl-1,3,5-triazin-2-yl)-5-(hexyloxy)phenol",LEVFXWNQQSSNAC-UHFFFAOYSA-N,CCCCCCOc1ccc(c(O)c1)c2nc(nc(n2)c3ccccc3)c4ccccc4,-9.1518109699
A-2803,"(1E,19E)-10,11-dioctylicosa-1,19-diene-1,20-diamine",PNJSUECMZCQDCC-ONBHPNORSA-N,CCCCCCCCCCCCCCCCCCCC\C=C\C\C=C\CCCCCCCCCCCNCCCCCCCCCCCCCCCCCCCC\C=C\C\C=C\CCCCCCCCCCC,-9.7071062552
A-2804,"1,2-bis(2-propylheptyl) benzene-1,2-dicarboxylate",MTYUOIVEVPTXFX-UHFFFAOYSA-N,CCCCCC(CCC)COC(=O)c1ccccc1C(=O)OCC(CCC)CCCCC,-9.6499887292
A-2805,"2,2-dichloro-1-(3-methyl-2,3-dihydro-1,4-benzoxazin-4-yl)ethanone",PFJJMJDEVDLPNE-UHFFFAOYSA-N,CC1COc2ccccc2N1C(=O)C(Cl)Cl,-3.8353901487
A-2806,(4-fluorophenyl)(piperidin-4-yl)methanone hydrochloride,GPKDBZQZPNOBGM-UHFFFAOYSA-N,[H+].[Cl-].Fc1ccc(cc1)C(=O)C2CCNCC2,0.5890195687
A-2807,"1,3-dihydroxypropan-2-one",RXKJFZQQPQGTFL-UHFFFAOYSA-N,OCC(=O)CO,1.0138642136
A-2809,"disodium 4-[(E)-2-{2,4-dihydroxy-5-[(E)-2-(2-hydroxy-3,5-dinitrophenyl)diazen-1-yl]-3-[(E)-2-(4-nitrophenyl)diazen-1-yl]phenyl}diazen-1-yl]-5-hydroxynaphthalene-2,7-disulfonate",SKCQDFLBBMGDPT-UHFFFAOYSA-L,[Na+].[Na+].Oc1cc(cc2cc(cc(N=Nc3cc(N=Nc4cc(cc(c4O)[N+]([O-])=O)[N+]([O-])=O)c(O)c(N=Nc5ccc(cc5)[N+]([O-])=O)c3O)c12)[S]([O-])(=O)=O)[S]([O-])(=O)=O,-0.9675670249
A-2811,"disodium 7,7'-(carbonyldiimino)bis[4-hydroxy-3-(phenylazo)naphthalene-2-sulphonate]",DSARWKALPGYFTA-UHFFFAOYSA-L,[Na+].[Na+].Oc1c2ccc(NC(=O)Nc3ccc4c(O)c(N=Nc5ccccc5)c(cc4c3)[S]([O-])(=O)=O)cc2cc(c1N=Nc6ccccc6)[S]([O-])(=O)=O,-1.8872466915
A-2812,trimethyl(oxiran-2-ylmethyl)azanium chloride,PUVAFTRIIUSGLK-UHFFFAOYSA-M,[Cl-].C[N+](C)(C)CC1CO1,0.749634411
A-2814,4-(propan-2-yl)benzene-1-sulfonic acid,CVLHGLWXLDOELD-UHFFFAOYSA-N,CC(C)c1ccc(cc1)[S](O)(=O)=O,0.6127511139
A-2816,disodium 2-[4-[[1-[[(2-methoxy-5-methyl-4-sulphonatophenyl)amino]carbonyl]-2-oxopropyl]azo]phenyl]-6-methylbenzothiazole-7-sulphonate,ADKFZTIPPMZAKW-UHFFFAOYSA-L,[Na+].[Na+].COc1cc(c(C)cc1NC(=O)C(N=Nc2ccc(cc2)c3sc4c(ccc(C)c4[S]([O-])(=O)=O)n3)C(C)=O)[S]([O-])(=O)=O,-0.9163461364
A-2818,disodium 5-[(E)-2-(2-hydroxynaphthalen-1-yl)diazen-1-yl]-2-{4-[(E)-2-(2-hydroxynaphthalen-1-yl)diazen-1-yl]-2-sulfonatophenyl}benzene-1-sulfonate,UJLOYSKARDZKTC-IQRNGZOLSA-L,[Na+].[Na+].[O-][S](=O)(=O)c1cc(N\N=C2/C(=O)C=Cc3ccccc23)ccc1c4ccc(N\N=C5/C(=O)C=Cc6ccccc56)cc4[S]([O-])(=O)=O,-1.8973139062
A-2819,4-aminobenzonitrile,YBAZINRZQSAIAY-UHFFFAOYSA-N,Nc1ccc(cc1)C#N,-1.1429743647
A-2821,potassium 2-sulfanylacetate,HYTYHTSMCRDHIM-UHFFFAOYSA-M,[K+].[O-]C(=O)CS,0.7806710209
A-2822,sodium 2-hydroxy-3-(prop-2-en-1-yloxy)propane-1-sulfonate,CJGJYOBXQLCLRG-UHFFFAOYSA-M,[Na+].OC(COCC=C)C[S]([O-])(=O)=O,0.5538399496
A-2823,2-(carboxyoxy)ethyl hydrogen carbonate,KMTRUDSVKNLOMY-UHFFFAOYSA-N,O=C1OCCO1,0.9461910524
A-2824,2-methylidenebutanedioic acid,LVHBHZANLOWSRM-UHFFFAOYSA-N,OC(=O)CC(=C)C(O)=O,-0.2250282975
A-2826,(2S)-2-amino-5-carbamimidamidopentanoic acid hydrochloride,KWTQSFXGGICVPE-WCCKRBBISA-N,[Cl-].N[C@@H](CCCN=C(N)N)C(O)=O.[H+],0.5397304724
A-2828,sodium 3-[[4-(benzoylethylamino)-2-methylphenyl]azo]-4-hydroxynaphthalene-1-sulphonate,RIHHHARTNPZGHI-BTCGTBLPSA-M,[Na+].CC(Nc1ccc(N\N=C\2C=C(c3ccccc3C2=O)[S]([O-])(=O)=O)c(C)c1)C(=O)c4ccccc4,-1.8129006218
A-2831,2-(chloromethyl)oxirane,BRLQWZUYTZBJKN-UHFFFAOYSA-N,ClCC1CO1,-0.1473736792
A-2833,trisodium 2-[bis(carboxylatomethyl)amino]acetate,DZCAZXAJPZCSCU-UHFFFAOYSA-K,[Na+].[Na+].[Na+].[O-]C(=O)CN(CC([O-])=O)CC([O-])=O,0.3961032361
A-2834,"sodium 2,4-diamino-5-[(E)-2-(2-hydroxy-5-nitrophenyl)diazen-1-yl]benzene-1-sulfonate",QHMUUKSTOXAOST-UHFFFAOYSA-M,[Na+].Nc1cc(N)c(cc1N=Nc2cc(ccc2O)[N+]([O-])=O)[S]([O-])(=O)=O,-0.7639420941
A-2836,di(phenyl)methanimine,SXZIXHOMFPUIRK-UHFFFAOYSA-N,N=C(c1ccccc1)c2ccccc2,-2.7811280063
A-2838,sodium 2-sulfanylacetate,GNBVPFITFYNRCN-UHFFFAOYSA-M,[Na+].[O-]C(=O)CS,0.7273991488
A-2839,"potassium 3,5,5-trimethylhexanoate",PMTWGKHDSHSGIL-UHFFFAOYSA-M,[K+].CC(CC([O-])=O)CC(C)(C)C,0.4851623717
A-2840,"sodium 2-amino-4-nitrophenol benzene-1,3-diol 2-amino-4-nitro-6-sulfobenzen-1-olate iron sodium hydride",KABLUZZLSKUJBA-UHFFFAOYSA-M,[Na].[Na+].[Fe].Nc1cc(ccc1O)[N+]([O-])=O.Nc2cc(cc(c2O)[S]([O-])(=O)=O)[N+]([O-])=O.Oc3cccc(O)c3,-0.9940566873
A-2843,disodium 7-anilino-4-hydroxy-3-({2-methoxy-5-methyl-4-[(4-sulfonatophenyl)diazenyl]phenyl}diazenyl)naphthalene-2-sulfonate,FXQXWRHUUBSXMQ-DFLIUALPSA-L,[Na+].[Na+].COc1cc(N=Nc2ccc(cc2)[S]([O-])(=O)=O)c(C)cc1N\N=C/3C(=O)c4ccc(Nc5ccccc5)cc4C=C3[S]([O-])(=O)=O,-2.0454014742
A-2845,"disodium 5-benzamido-4-hydroxy-3-[(E)-2-[2-(2-methylphenoxy)phenyl]diazen-1-yl]naphthalene-2,7-disulfonate",DBWPJEFEDHFXDH-RAHJWFRPSA-L,[Na+].[Na+].Cc1ccccc1Oc2ccccc2N\N=C/3C(=O)c4c(NC(=O)c5ccccc5)cc(cc4C=C3[S]([O-])(=O)=O)[S]([O-])(=O)=O,-2.0506714672
A-2846,3-(morpholin-4-yl)propane-1-sulfonic acid,DVLFYONBTKHTER-UHFFFAOYSA-N,[O-][S](=O)(=O)CCC[NH+]1CCOCC1,0.4557825074
A-2848,"octasodium 7,7'-[(2,2'-disulphonato[1,1'-biphenyl]-4,4'-diyl)bis[imino(6-chloro-1,3,5-triazine-4,2-diyl)imino[2-(carbamoylamino)]-4,1-phenylene]azo]]bis(naphthalene-1,3,6-trisulphonate)",WAPHSRMHUOCGQE-UHFFFAOYSA-F,[Na+].[Na+].[Na+].[Na+].[Na+].[Na+].[Na+].[Na+].NC(=O)Nc1cc(Nc2nc(Cl)nc(Nc3ccc(c4ccc(Nc5nc(Cl)nc(Nc6ccc(N=Nc7cc8c(cc(cc8[S]([O-])(=O)=O)[S]([O-])(=O)=O)cc7[S]([O-])(=O)=O)c(NC(N)=O)c6)n5)cc4[S]([O-])(=O)=O)c(c3)[S]([O-])(=O)=O)n2)ccc1N=Nc9cc%10c(cc(cc%10[S]([O-])(=O)=O)[S]([O-])(=O)=O)cc9[S]([O-])(=O)=O,-1.4981682805
A-2849,lithium(1+) ion chloride,KWGKDLIKAYFUFQ-UHFFFAOYSA-M,[Li+].[Cl-],1.1343979721
A-2850,2-piperidin-2-ylethanol,PTHDBHDZSMGHKF-ZETCQYMHSA-O,OCC[C@@H]1CCCC[NH2+]1,0.6427483546
A-2851,"2-amino-2-(hydroxymethyl)propane-1,3-diol hydrochloride",QKNYBSVHEMOAJP-UHFFFAOYSA-N,[H+].[Cl-].NC(CO)(CO)CO,0.5514149152
A-2852,2-methylpropyl (2R)-2-hydroxypropanoate,WBPAQKQBUKYCJS-ZCFIWIBFSA-N,CC(C)COC(=O)[C@@H](C)O,-0.4128573351
A-2853,calcium 2-sulfanidylacetate,QVCFQEFEMBCIOI-UHFFFAOYSA-M,[Ca++].[O-]C(=O)CS,-0.3838981351
A-2854,"3-(aminomethyl)-3,5,5-trimethylcyclohexan-1-ol",YFEAYNIMJBHJCM-UHFFFAOYSA-N,CC1(C)CC(O)CC(C)(CN)C1,0.488999371
A-2855,sodium 2-methylprop-2-ene-1-sulfonate,SZHIIIPPJJXYRY-UHFFFAOYSA-M,[Na+].CC(=C)C[S]([O-])(=O)=O,0.5194215084
A-2856,dipotassium O-[(sulfonatoperoxy)sulfonyl]oxidanidolate,USHAGKDGDHPEEY-UHFFFAOYSA-L,[K+].[K+].[O-][S](=O)(=O)OO[S]([O-])(=O)=O,-0.6537301416
A-2857,(2S)-2-hydroxy-3-(phenylamino)propane-1-sulfonate,CLEVULOKVPBHCU-VIFPVBQESA-M,O[C@@H](CNc1ccccc1)C[S]([O-])(=O)=O,0.1187844902
A-2858,"2-[2-[4-[(2-cyanoethyl)methylamino]phenyl]vinyl]-1,3,3-trimethyl-3H-indolium dihydrogen phosphate",XVIVSJJRGUZEAO-UHFFFAOYSA-M,CN(CCC#N)c1ccc(cc1)C=CC2=[N+](C)c3ccccc3C2(C)C.O[P](O)([O-])=O,-0.9304018204
A-2859,"sodium 3-[2-heptyl-3-(2-hydroxyethyl)-2,3-dihydro-1H-imidazol-1-yl]propanoate",YIJNRGGQSJNTGE-UHFFFAOYSA-M,[Na+].CCCCCCCC1N(CCO)C=CN1CCC([O-])=O,0.2127067575
A-2860,tetrasodium 2-({2-[bis(carboxylatomethyl)amino]ethyl}(carboxylatomethyl)amino)acetate,UEUXEKPTXMALOB-UHFFFAOYSA-J,[Na+].[Na+].[Na+].[Na+].[O-]C(=O)CN(CCN(CC([O-])=O)CC([O-])=O)CC([O-])=O,0.1189898768
A-2863,chromium(3+) ion trifluoride,QZEZRQVFRMLNPK-UHFFFAOYSA-N,[F].[F].[F].[Cr],-0.3384166482
A-2864,oxiran-2-ylmethyl 2-methylprop-2-enoate,VOZRXNHHFUQHIL-UHFFFAOYSA-N,CC(=C)C(=O)OCC1CO1,-0.4537890803
A-2865,3-nitro-2H-pyrazole,MZRUFMBFIKGOAL-UHFFFAOYSA-N,[O-][N+](=O)c1[nH]ncc1,-1.2854728211
A-2868,sodium bis[2-[[5-(aminosulphonyl)-2-hydroxyphenyl]azo]-3-oxo-N-phenylbutyramidato(2-)]cobaltate(1-),GOMMRZOFKXWNAB-UHFFFAOYSA-J,[Na+].[Co+3].CC(=O)/C(=N/Nc1cc(ccc1[O-])[S](N)(=O)=O)C(=O)[N-]c2ccccc2.CC(=O)/C(=N/Nc3cc(ccc3[O-])[S](N)(=O)=O)C(=O)[N-]c4ccccc4,-2.2084701124
A-2869,"2-hexoxypropane-1,3-diol",PXWAQUODOTWYMT-UHFFFAOYSA-N,CCCCCCOC(CO)CO,-1.0558122117
A-2870,1-ethyl-1-methylpyrrolidin-1-ium bromide,KHJQQUGSPDBDRM-UHFFFAOYSA-M,[Br-].CC[N+]1(C)CCCC1,1.4101871429