ID,Name,InChIKey,SMILES,Solubility
A-791,"androsta-1,4-diene-3,17-dione",LUJVUUWNAPIQQI-UHFFFAOYSA-N,CC12CCC3C(CCC4=CC(=O)C=CC34C)C1CCC2=O,-2.8204596094
A-792,2-phenylethyl pivalate,DPVYDTACPLLHCF-UHFFFAOYSA-N,CC(C)(C)C(=O)OCCc1ccccc1,-3.6752800895
A-793,1-cyclohexylethyl acetate,JAVZALBKNIHSLL-UHFFFAOYSA-N,CC(OC(C)=O)C1CCCCC1,-3.5976237668
A-794,"4-(2,6,6-trimethylcyclohex-1-en-1-yl)butan-2-one",QJJDNZGPQDGNDX-UHFFFAOYSA-N,CC(=O)CCC1=C(C)CCCC1(C)C,-3.6550445763
A-797,bromo(ethyl)triphenylphosphorane,JHYNXXDQQHTCHJ-UHFFFAOYSA-M,[Br-].CC[P+](c1ccccc1)(c2ccccc2)c3ccccc3,-0.9372185286
A-800,"benzyl({[(2,6-dimethylphenyl)carbamoyl]methyl})diethylazanium benzoate hydrate",VWTINHYPRWEBQY-UHFFFAOYSA-N,CC[N+](CC)(CC(=O)Nc1c(C)cccc1C)Cc2ccccc2.[O-]C(=O)c3ccccc3,-1.020958606
A-803,hexan-1-ol,ZSIAUFGUXNUGDI-UHFFFAOYSA-N,CCCCCCO,-1.382910122
A-808,5-methyl-2-(propan-2-yl)cyclohexan-1-ol,NOOLISFMXDJSKH-KXUCPTDWSA-N,CC(C)[C@@H]1CC[C@@H](C)C[C@H]1O,-2.5706235426
A-811,"(2E,6E)-3,7-dimethylnona-2,6-dienenitrile",DHJVLXVXNFUSMU-NSJFVGFPSA-N,CC/C(C)=C/CC/C(C)=C/C#N,-3.5896411422
A-812,5-hexyl-5-methyldihydrofuran-2(3H)-one,ALWUKGXLBSQSMA-UHFFFAOYSA-N,CCCCCCC1(C)CCC(=O)O1,-2.6432618239
A-813,2-methoxy-2-methylpropane,BZLVMXJERCGZMT-UHFFFAOYSA-N,COC(C)(C)C,-0.3235268543
A-816,sodium 2-amino-5-nitrobenzenesulfonate,VTMRGLXTSDVXAE-UHFFFAOYSA-M,[Na+].Nc1ccc(cc1[S]([O-])(=O)=O)[N+]([O-])=O,-1.7677385179
A-818,Patchoulialcohol,GGHMUJBZYLPWFD-DUNKBJDJSA-N,C[C@H]1CCC2(O)C(C)(C)C3CC[C@@]2(C)C1C3,-3.7259038203
A-819,"(2-phenylbutan-2-yl)benzene; (2-phenylethyl)benzene; 1,2,4,5-tetraethylbenzene; 1-methyl-2-phenylbenzene; 1-methylnaphthalene; benzene; cyclohexylbenzene; ethenylbenzene; ethylbenzene; phenylbenzene; toluene",ILFKMCMFANUWPS-UHFFFAOYSA-N,CCc1ccccc1.CCc2cc(CC)c(CC)cc2CC.CCC(C)(c3ccccc3)c4ccccc4.Cc5ccccc5.Cc6ccccc6c7ccccc7.Cc8cccc9ccccc89.C=Cc%10ccccc%10.C%11CCC(CC%11)c%12ccccc%12.C(Cc%13ccccc%13)c%14ccccc%14.c%15ccccc%15.c%16ccc(cc%16)c%17ccccc%17,-4.5881768419
A-824,dibenzylamine,BWLUMTFWVZZZND-UHFFFAOYSA-N,C(NCc1ccccc1)c2ccccc2,-2.6876302374
A-825,"5-methyl-1H-1,2,3-benzotriazole",CMGDVUCDZOBDNL-UHFFFAOYSA-N,Cc1cccc2n[nH]nc12,-1.5169635388
A-826,3-amino-2-hydroxy-5-nitrobenzene-1-sulfonic acid,DQIVFTJHYKDOMZ-UHFFFAOYSA-N,Nc1cc(cc(c1O)[S](O)(=O)=O)[N+]([O-])=O,-1.7662055678
A-827,"tetrasodium 5-{[(2E)-6-[bis(2-hydroxyethyl)amino]-4-[(4-sulfonatophenyl)amino]-1,2-dihydro-1,3,5-triazin-2-ylidene]amino}-2-[(E)-2-(4-{[(2E)-6-[bis(2-hydroxyethyl)amino]-4-[(4-sulfonatophenyl)amino]-1,2-dihydro-1,3,5-triazin-2-ylidene]amino}-2-sulfonatophenyl)ethenyl]benzene-1-sulfonate",UGOUPNUFULXHAK-MBCFVHIPSA-J,[Na+].[Na+].[Na+].[Na+].OCCN(CCO)c1nc(Nc2ccc(cc2)[S]([O-])(=O)=O)nc(Nc3ccc(\C=C\c4ccc(Nc5nc(Nc6ccc(cc6)[S]([O-])(=O)=O)nc(n5)N(CCO)CCO)c(c4)[S]([O-])(=O)=O)cc3[S]([O-])(=O)=O)n1,-0.4642868095
A-830,"1,2-dimethyl benzene-1,2-dicarboxylate",NIQCNGHVCWTJSM-UHFFFAOYSA-N,COC(=O)c1ccccc1C(=O)OC,-1.6861579246
A-831,"4-{bis[4-(dimethylamino)phenyl]methylidene}-N,N-dimethylcyclohexa-2,5-dien-1-iminium chloride",ZXJXZNDDNMQXFV-UHFFFAOYSA-M,[Cl-].CN(C)c1ccc(cc1)[C+](c2ccc(cc2)N(C)C)c3ccc(cc3)N(C)C,-2.0085884627
A-832,6-heptyloxan-2-one,GHBSPIPJMLAMEP-UHFFFAOYSA-N,CCCCCC1CCCC(=O)O1,-1.6290322311
A-833,"ethyl 4,4,4-trifluoro-3-oxobutanoate",OCJKUQIPRNZDTK-UHFFFAOYSA-N,CCOC(=O)CC(=O)C(F)(F)F,-1.6630244633
A-834,"oxydiethane-2,1-diyl dinitrate",LYAGTVMJGHTIDH-UHFFFAOYSA-N,[O-][N+](=O)OCCOCCO[N+]([O-])=O,-1.6904508209
A-841,diphenylsilanediol,OLLFKUHHDPMQFR-UHFFFAOYSA-N,O[Si](O)(c1ccccc1)c2ccccc2,-2.7330206215
A-842,pentyl pentanoate,FGPPDYNPZTUNIU-UHFFFAOYSA-N,CCCCCOC(=O)CCCC,-3.6244813037
A-843,"3-methyl-1-({3-[(3-methyl-2,5-dioxo-2,5-dihydro-1H-pyrrol-1-yl)methyl]phenyl}methyl)-2,5-dihydro-1H-pyrrole-2,5-dione",MIIBUHIQXLFJFP-UHFFFAOYSA-N,CC1=CC(=O)N(Cc2cccc(CN3C(=O)C=C(C)C3=O)c2)C1=O,-3.9003349932
A-844,nickel(2+) ion oxalate,DOLZKNFSRCEOFV-UHFFFAOYSA-L,[Ni++].[O-]C(=O)C([O-])=O,-3.556228502
A-848,(3Z)-hex-3-en-1-yl benzoate,BCOXBEHFBZOJJZ-ARJAWSKDSA-N,CC\C=C/CCOC(=O)c1ccccc1,-3.7048974167
A-851,"1,4-dimethyl 2-aminobenzene-1,4-dicarboxylate",DSSKDXUDARIMTR-UHFFFAOYSA-N,COC(=O)c1ccc(c(N)c1)C(=O)OC,-3.7185037648
A-853,8-ethylundecan-1-amine,KFBNTNYCQVDLBK-UHFFFAOYSA-N,CCCC(CC)CCCCCCCN,-3.6976259568
A-855,dodecanedioic acid,TVIDDXQYHWJXFK-UHFFFAOYSA-N,OC(=O)CCCCCCCCCCC(O)=O,-3.7602414897
A-857,"4,4,8,8-tetramethyloctahydro-4a,7-methanonaphtho[1,8a-b]oxirene",VQHLGZRKOZIABH-UHFFFAOYSA-N,CC1(C)CCC2OC23C(C)(C)C4CCC13C4,-4.6529288002
A-861,"1-[(9,9-dimethyldecyl)sulfanyl]propan-2-ol",XROXSXGRRMHJFJ-UHFFFAOYSA-N,CC(O)CSCCCCCCCCC(C)(C)C,-4.7309406924
A-862,dodecanoic acid,POULHZVOKOAJMA-UHFFFAOYSA-N,CCCCCCCCCCCC(O)=O,-4.6195835711
A-863,"[2-butyl-4-chloro-1-({4-[2-(2H-1,2,3,4-tetrazol-5-yl)phenyl]phenyl}methyl)-1H-imidazol-5-yl]methanol",PSIFNNKUMBGKDQ-UHFFFAOYSA-N,CCCCc1nc(Cl)c(CO)n1Cc2ccc(cc2)c3ccccc3c4n[nH]nn4,-4.9450169862
A-864,lutetium oxide,UGBIHFMRUDAMBY-UHFFFAOYSA-N,[O--].[O--].[O--].[Lu+3].[Lu+3],-4.9185665359
A-865,2-ethylhexyl 2-sulfanylacetate,OWHSTLLOZWTNTQ-UHFFFAOYSA-N,CCCCC(CC)COC(=O)CS,-4.6354816214
A-867,"(1,1-dimethylpropyl)benzene",QHTJSSMHBLGUHV-UHFFFAOYSA-N,CCC(C)(C)c1ccccc1,-4.5007459195
A-868,"2-methyl-4-(2,6,6-trimethylcyclohex-2-en-1-yl)butanal",ACVNYUMGXUDACR-UHFFFAOYSA-N,CC(CCC=O)C1C(=CCCC1(C)C)C,-4.6532020914
A-870,"2,2-dimethyl-3-methylidenebicyclo[2.2.1]heptane",CRPUJAZIXJMDBK-UHFFFAOYSA-N,CC1(C)C2CCC(C2)C1=C,-4.4715404278
A-871,2-[2-(4-methylcyclohex-3-en-1-yl)propyl]cyclopentan-1-one,KNHGOYVXAHUDHP-UHFFFAOYSA-N,CC(CC1CCCC1=O)C2CCC(=CC2)C,-4.6803670486
A-874,methyl decanoate,YRHYCMZPEVDGFQ-UHFFFAOYSA-N,CCCCCCCCCC(=O)OC,-4.6267485225
A-875,dipraseodymium(3+) ion tricarbonate,XIRHLBQGEYXJKG-UHFFFAOYSA-H,[Pr+3].[Pr+3].[O-]C([O-])=O.[O-]C([O-])=O.[O-]C([O-])=O,-5.0220270242
A-876,"1,1,3,3-tetrabutylurea",SNDGLCYYBKJSOT-UHFFFAOYSA-N,CCCCN(CCCC)C(=O)N(CCCC)CCCC,-4.8205954965
A-877,Cedryl methyl ether,HRGPYCVTDOECMG-FETWPZQLSA-N,CO[C@]1(C)CCC23C[C@@H]1C(C)(C)[C@@H]2CC[C@H]3C,-4.7401771795
A-883,cyclododecyl methyl ether,WDSOYUINLRIGNV-UHFFFAOYSA-N,COC1CCCCCCCCCCC1,-4.6835903829
A-884,"2-ethoxy-2,6,6-trimethyl-9-methylidenebicyclo[3.3.1]nonane",LUNAXRIJWWBQTE-UHFFFAOYSA-N,CCOC1(C)CCC2C(=C)C1CCC2(C)C,-4.7342962454
A-885,"N,N-diethyl[(diethylcarbamothioyl)disulfanyl]carbothioamide",AUZONCFQVSMFAP-UHFFFAOYSA-N,CCN(CC)C(=S)SSC(=S)N(CC)CC,-4.8603775493
A-886,"6-amino-2-(2,4-dimethylphenyl)-1H-benzo[de]isoquinoline-1,3(2H)-dione",FQLZTPSAVDHUKS-UHFFFAOYSA-N,Cc1ccc(N2C(=O)c3cccc4c(N)ccc(C2=O)c34)c(C)c1,-4.8916555333
A-887,"(4-tert-butyl-2,6-dimethylphenyl)acetonitrile",ZUXNULGHCOXCFL-UHFFFAOYSA-N,Cc1cc(cc(C)c1CC#N)C(C)(C)C,-4.7018118295
A-888,"3,9-bis[2,4-bis(2-phenylpropan-2-yl)phenoxy]-2,4,8,10-tetraoxa-3,9-diphosphaspiro[5.5]undecane",WBWXVCMXGYSMQA-DISNZCRASA-N,CC(C)(c1ccccc1)c2ccc(O[P@]3OC[C@]4(CO3)CO[P@](OC4)Oc5ccc(cc5C(C)(C)c6ccccc6)C(C)(C)c7ccccc7)c(c2)C(C)(C)c8ccccc8,-7.2319734263
A-889,Naphthalimide,XJHABGPPCLHLLV-UHFFFAOYSA-N,O=C1NC(=O)c2cccc3cccc1c23,-4.6928315029
A-890,dibutylstannanone,JGFBRKRYDCGYKD-UHFFFAOYSA-N,CCCC[Sn](=O)CCCC,-4.794038183
A-891,dibutyltin bis(2-ethylhexanoate),GPDWNEFHGANACG-UHFFFAOYSA-L,CCCC[Sn++]CCCC.CCCCC(CC)C([O-])=O.CCCCC(CC)C([O-])=O,-5.1134043257
A-893,octahydro-2H-1-benzopyran-2-one,MSFLYJIWLHSQLG-UHFFFAOYSA-N,O=C1CCC2CCCCC2O1,-0.5865603256
A-895,methyl 4-methylbenzoate,QSSJZLPUHJDYKF-UHFFFAOYSA-N,COC(=O)c1ccc(C)cc1,-2.5767203524
A-896,"2-benzyl-4,4,6-trimethyl-1,3-dioxane",KSEFBQCEGMTNPD-UHFFFAOYSA-N,CC1CC(C)(C)OC(Cc2ccccc2)O1,-2.7446854432
A-898,"benzene-1,2-diamine",GEYOCULIXLDCMW-UHFFFAOYSA-N,Nc1ccccc1N,-0.4396098787
A-901,"1,2-benzisothiazol-3(2H)-one 1,1-dioxide",CVHZOJJKTDOEJC-UHFFFAOYSA-N,O=C1N[S](=O)(=O)c2ccccc12,-1.6718324141
A-904,sodium 4-amino-3-methylbenzene-1-sulfonate,RVSNUNNCRYLEEM-UHFFFAOYSA-M,[Na+].Cc1cc(ccc1N)[S]([O-])(=O)=O,-1.7295012251
A-906,"3,7-dimethyloctanenitrile",SAPMLSXAXRULJB-UHFFFAOYSA-N,CC(C)CCCC(C)CC#N,-3.5877591379
A-907,calcium molybdate,BIOOACNPATUQFW-UHFFFAOYSA-N,[Ca++].[O-][Mo]([O-])(=O)=O,-3.7036943449
A-908,1-[3-(2-oxoazepane-1-carbonyl)benzoyl]azepan-2-one,HXZRLUTUNSQNCG-UHFFFAOYSA-N,O=C1CCCCCN1C(=O)c2cccc(c2)C(=O)N3CCCCCC3=O,-3.9583461947
A-909,"6,10-dimethylundeca-5,9-dien-2-one",HNZUNIKWNYHEJJ-FMIVXFBMSA-N,CC(C)=CCC\C(C)=C\CCC(C)=O,-3.6974484249
A-914,prop-2-en-1-yl hexanoate,RCSBILYQLVXLJG-UHFFFAOYSA-N,CCCCCC(=O)OCC=C,-2.6105517594
A-916,"sodium 2-amino-4,6-dinitrophenolate",UENNEPPWFZYINW-UHFFFAOYSA-M,[Na+].Nc1cc(cc(c1[O-])[N+]([O-])=O)[N+]([O-])=O,-1.7648130029
A-917,4-chloro-1-(4-fluorophenyl)butan-1-one,HXAOUYGZEOZTJO-UHFFFAOYSA-N,Fc1ccc(cc1)C(=O)CCCCl,-2.7226339225
A-922,tri(propan-2-yl)silyl prop-2-enoate,PQSIXYSSKXAOFE-UHFFFAOYSA-N,CC(C)[Si](OC(=O)C=C)(C(C)C)C(C)C,-4.9437379631
A-924,diisopropyl succinate,YPLYFEUBZLLLIY-UHFFFAOYSA-N,CC(C)OC(=O)CCC(=O)OC(C)C,-1.7293168462
A-926,strontium(2+) ion 3-hydroxy-4-[(E)-2-(4-methyl-2-sulfonatophenyl)diazen-1-yl]naphthalene-2-carboxylate,XUCZYOLXABAZRV-LRZQPWDCSA-L,[Sr++].Cc1ccc(N\N=C\2C(=O)C(=Cc3ccccc23)C([O-])=O)c(c1)[S]([O-])(=O)=O,-4.1057301532
A-927,"8-[(4-aminophenyl)diazenyl]-7-hydroxy-N,N,N-trimethylnaphthalen-2-aminium chloride",UXEAWNJALIUYRH-UHFFFAOYSA-N,[Cl-].C[N+](C)(C)c1ccc2ccc(O)c(N=Nc3ccc(N)cc3)c2c1,-1.9807853884
A-929,trifluoroacetamide,NRKYWOKHZRQRJR-UHFFFAOYSA-N,NC(=O)C(F)(F)F,-1.4850227408
A-930,4-(2-methylbutan-2-yl)cyclohexan-1-one,DCSKAMGZSIRJAQ-UHFFFAOYSA-N,CCC(C)(C)C1CCC(=O)CC1,-2.6568927779
A-932,4-methanesulfonyl-1-methyl-2-nitrobenzene,OXBDLEXAVKAJFD-UHFFFAOYSA-N,Cc1ccc(cc1[N+]([O-])=O)[S](C)(=O)=O,-2.7647010816
A-935,methyl non-2-ynoate,NTLJTUMJJWVCTL-UHFFFAOYSA-N,CCCCCCC#CC(=O)OC,-3.6518876662
A-936,decan-1-ol,MWKFXSUHUHTGQN-UHFFFAOYSA-N,CCCCCCCCCCO,-3.6312380365
A-939,triphenylphosphine oxide,FIQMHBFVRAXMOP-UHFFFAOYSA-N,O=[P](c1ccccc1)(c2ccccc2)c3ccccc3,-2.8774727952
A-940,"2-chloro-1,4-dimethoxybenzene",QMXZSRVFIWACJH-UHFFFAOYSA-N,COc1ccc(OC)c(Cl)c1,-2.6724024043
A-944,2-(2-naphthyloxy)ethanol,BQPBZDSDFCDSAO-UHFFFAOYSA-N,OCCOc1ccc2ccccc2c1,-2.7142946902
A-950,butoxybenzene,YFNONBGXNFCTMM-UHFFFAOYSA-N,CCCCOc1ccccc1,-3.6132495633
A-951,2-[2-(benzoyloxy)ethoxy]ethyl benzoate,NXQMCAOPTPLPRL-UHFFFAOYSA-N,O=C(OCCOCCOC(=O)c1ccccc1)c2ccccc2,-3.937488879
A-953,"(Z)-N-9-octadecenylpropane-1,3-diamine",TUFJPPAQOXUHRI-KTKRTIGZSA-N,CCCCCCCC\C=C/CCCCCCCCNCCCN,-3.9550420009
A-954,"1,2,4-trichlorobenzene",PBKONEOXTCPAFI-UHFFFAOYSA-N,Clc1ccc(Cl)c(Cl)c1,-3.7024520783
A-959,"[3-methyl-4-(2,2,2-trifluoroethoxy)pyridin-2-yl]methanol",GNILTGRCVCMPFJ-UHFFFAOYSA-N,Cc1c(CO)nccc1OCC(F)(F)F,-1.7920737105
A-960,methoxymethane,LCGLNKUTAGEVQW-UHFFFAOYSA-N,COC,0.8843659201
A-961,"(2E)-3-(3,4,5-trimethoxyphenyl)prop-2-enoic acid",YTFVRYKNXDADBI-SNAWJCMRSA-N,COc1cc(\C=C\C(O)=O)cc(OC)c1OC,-2.830470194
A-962,barium(2+) ion diphosphinate,OWESJVSXFRLVFC-UHFFFAOYSA-L,[Ba++].[O-]P=O.[O-]P=O,0.1236633717
A-967,"1,4-dibromobutane",ULTHEAFYOOPTTB-UHFFFAOYSA-N,BrCCCCBr,-2.7902167817
A-969,"1,2,3,4-tetrahydronaphthalene",CXWXQJXEFPUFDZ-UHFFFAOYSA-N,C1CCc2ccccc2C1,-3.5673681389
A-971,"1,6-dibutyl hexanedioate",XTJFFFGAUHQWII-UHFFFAOYSA-N,CCCCOC(=O)CCCCC(=O)OCCCC,-3.8681538696
A-972,"ethyl phenyl(2,4,6-trimethylbenzoyl)phosphinate",ZMDDERVSCYEKPQ-UHFFFAOYSA-N,CCO[P](=O)(C(=O)c1c(C)cc(C)cc1C)c2ccccc2,-3.9560819473
A-973,2-tert-butyl-5-methylphenol,XOUQAVYLRNOXDO-UHFFFAOYSA-N,Cc1ccc(c(O)c1)C(C)(C)C,-2.672674663
A-974,dimethyl 2-nitroterephthalate,PAYWCKGMOYQZAW-UHFFFAOYSA-N,COC(=O)c1ccc(C(=O)OC)c(c1)[N+]([O-])=O,-2.8359048818
A-975,Cobaltous acetate,QAHREYKOYSIQPH-UHFFFAOYSA-L,[Co++].CC([O-])=O.CC([O-])=O,0.2936043702
A-976,6-(prop-2-enoyloxy)hexyl prop-2-enoate,FIHBHSQYSYVZQE-UHFFFAOYSA-N,C=CC(=O)OCCCCCCOC(=O)C=C,-2.8193366955
A-978,"N,N-dimethyldecanamide",HNXNKTMIVROLTK-UHFFFAOYSA-N,CCCCCCCCCC(=O)N(C)C,-2.7681111795
A-982,4-[(E)-2-phenyldiazen-1-yl]aniline,QPQKUYVSJWQSDY-UHFFFAOYSA-N,Nc1ccc(cc1)N=Nc2ccccc2,-3.7597030757
A-986,"(2,2,3-trimethylcyclopent-3-en-1-yl)acetonitrile",YYJOTFQPYNOYAB-UHFFFAOYSA-N,CC1=CCC(CC#N)C1(C)C,-2.6475372328
A-988,2-tert-butyl-4-methylphenol,IKEHOXWJQXIQAG-UHFFFAOYSA-N,Cc1ccc(O)c(c1)C(C)(C)C,-2.6917536232
A-989,"N,N,N-trimethylanilinium chloride",MQAYPFVXSPHGJM-UHFFFAOYSA-M,[Cl-].C[N+](C)(C)c1ccccc1,0.2877472965
A-990,"1,3,3-trimethyl-2-oxabicyclo[2.2.2]octane 2-(4-methylcyclohex-3-en-1-yl)propan-2-yl acetate",GBIJCMYLVWYAKU-UHFFFAOYSA-N,CC(=O)OC(C)(C)C1CCC(=CC1)C.CC23CCC(CC2)C(C)(C)O3,-3.0213590642
A-991,"tris(prop-2-en-1-yloxy)-1,3,5-triazine",BJELTSYBAHKXRW-UHFFFAOYSA-N,C=CCOc1nc(OCC=C)nc(OCC=C)n1,-2.8742257802
A-993,valeric acid,NQPDZGIKBAWPEJ-UHFFFAOYSA-N,CCCCC(O)=O,-0.490652149
A-994,3-methyl-4-phenylbutan-2-ol,VSIXJPFQJMODCS-UHFFFAOYSA-N,CC(O)C(C)Cc1ccccc1,-1.6969729899
A-995,"1,3-diethyl 2-butylpropanedioate",RPNFNBGRHCUORR-UHFFFAOYSA-N,CCCCC(C(=O)OCC)C(=O)OCC,-2.8164963969
A-996,"2-(2-undecyl-4,5-dihydro-1H-imidazol-1-yl)ethanol",QNDGQRJVVZJMJO-UHFFFAOYSA-N,CCCCCCCCCCCC1=NCCN1CCO,-3.8986556211
A-997,1-chloro-4-(trifluoromethyl)benzene,QULYNCCPRWKEMF-UHFFFAOYSA-N,FC(F)(F)c1ccc(Cl)cc1,-3.7276952246
A-998,4-(4-hydroxyphenyl)phenol,VCCBEIPGXKNHFW-UHFFFAOYSA-N,Oc1ccc(cc1)c2ccc(O)cc2,-3.7423730992
A-999,"1,4-bis[(E)-prop-1-enoxy]cyclohexane 1,4-di(prop-1-enoxy)cyclohexane",TXHDDWGFTSDFEB-LQIBPGRFSA-N,C\C=C\OC1CCC(CC1)O\C=C\C,-3.9037320907
A-1000,"1,7-dioxacycloheptadecan-8-one",MKEIDVFLAWJKMY-UHFFFAOYSA-N,O=C1CCCCCCCCCOCCCCCO1,-3.8838494997
A-1002,9-Methylnonadecane,FFVPRSKCTDQLBP-UHFFFAOYSA-N,CCCCCCCCCCC(C)CCCCCCCC,-6.4511045339
A-1003,(E)-(carbamoylimino)urea; (Z)-(carbamoylimino)urea,XOZUGNYVDXMRKW-UHFFFAOYSA-N,NC(=O)N=NC(N)=O,-3.5462434596
A-1004,"2,4-di-tert-butylphenol",ICKWICRCANNIBI-UHFFFAOYSA-N,CC(C)(C)c1ccc(O)c(c1)C(C)(C)C,-3.7960463334
A-1005,3-(4-tert-butylphenyl)-2-methylpropanal,SDQFDHOLCGWZPU-UHFFFAOYSA-N,CC(Cc1ccc(cc1)C(C)(C)C)C=O,-3.7917820609
A-1006,3-amino-4-methoxy-N-phenylbenzamide,LHMQDVIHBXWNII-UHFFFAOYSA-N,COc1ccc(cc1N)C(=O)Nc2ccccc2,-3.86580004
A-1007,methanidylidyneoxidanium,UGFAIRIUMAVXCW-UHFFFAOYSA-N,[C-]#[O+],-2.9287991689
A-1009,2-chloro-2-methylbutane,CRNIHJHMEQZAAS-UHFFFAOYSA-N,CCC(C)(C)Cl,-2.5105450102
A-1011,"2,2',2'',2'''-(ethane-1,2-diyldinitrilo)tetraacetonitrile",FDWRKVKXYZRYOD-UHFFFAOYSA-N,N#CCN(CCN(CC#N)CC#N)CC#N,-2.8204043469
A-1013,tert-butyl benzenecarboperoxoate,GJBRNHKUVLOCEB-UHFFFAOYSA-N,CC(C)(C)OOC(=O)c1ccccc1,-2.7764329492
A-1014,"1,1-difluoroethane",NPNPZTNLOVBDOC-UHFFFAOYSA-N,CC(F)F,-1.3147228436
A-1015,"3,7-dimethyloctan-3-ol",DLHQZZUEERVIGQ-UHFFFAOYSA-N,CCC(C)(O)CCCC(C)C,-2.6942897822
A-1016,"5-methoxy-1,3-dihydro-2H-benzimidazole-2-thione",KOFBRZWVWJCLGM-UHFFFAOYSA-N,COc1ccc2NC(=S)Nc2c1,-2.7506819237
A-1018,bromo(trifluoro)methane,RJCQBQGAPKAMLL-UHFFFAOYSA-N,FC(F)(F)Br,-2.6677709688
A-1020,"zinc bis(O,O-diisooctyl) bis(dithiophosphate)",SXYOAESUCSYJNZ-UHFFFAOYSA-L,[Zn++].CC(C)CCCCCO[P]([S-])(=S)OCCCCCC(C)C.CC(C)CCCCCO[P]([S-])(=S)OCCCCCC(C)C,-4.3707014658
A-1021,2-({[6-(oxiran-2-ylmethoxy)naphthalen-1-yl]oxy}methyl)oxirane,MEVBAGCIOOTPLF-UHFFFAOYSA-N,C1OC1COc2ccc3c(OCC4CO4)cccc3c2,-3.9191737976
A-1022,"(2E)-3,7-dimethylocta-2,6-dien-1-yl formate",FQMZVFJYMPNUCT-YRNVUSSQSA-N,CC(C)=CCC\C(C)=C\COC=O,-3.7461507617
A-1023,pentalead tetraoxide sulphate,BKMAZJUOHZYBFP-UHFFFAOYSA-L,O.O.O.O.[Pb].[Pb].[Pb].[Pb].[Pb].[O-][S]([O-])(=O)=O,-4.5661230993
A-1024,"(3E)-4-(2,5,6,6-tetramethylcyclohex-2-en-1-yl)but-3-en-2-one",JZQOJFLIJNRDHK-UZPJXDOOSA-N,C[C@@H]1CC=C(C)[C@H](\C=C\C(C)=O)C1(C)C,-3.8026769123
A-1025,cyclohexylmethyl-dimethoxysilane,XRLIOAUFFCHSIC-UHFFFAOYSA-N,CO[SiH](CC1CCCCC1)OC,-3.0959725365
A-1027,5-amino-2-[(E)-2-(4-amino-2-sulfophenyl)ethenyl]benzene-1-sulfonic acid,REJHVSOVQBJEBF-OWOJBTEDSA-N,Nc1ccc(\C=C\c2ccc(N)cc2[S](O)(=O)=O)c(c1)[S](O)(=O)=O,-4.0635303796
A-1028,"zinc 4-methyl-2-thioxo-2,3-dihydrobenzimidazol-1-ide 7-methyl-2-thioxo-2,3-dihydrobenzimidazol-1-ide",GHPJYLIEFFVDGR-UHFFFAOYSA-L,[Zn++].Cc1cccc2[N-]C(=S)Nc12.Cc3cccc4NC(=S)[N-]c34,-4.0879587895
A-1029,3-[hydroxy(phenyl)phosphoryl]propanoic acid,MORLYCDUFHDZKO-UHFFFAOYSA-N,OC(=O)CC[P](O)(=O)c1ccccc1,-0.8283051545
A-1030,(phenylmethanesulfinylmethyl)benzene,HTMQZWFSTJVJEQ-UHFFFAOYSA-N,O=[S](Cc1ccccc1)Cc2ccccc2,-2.8588087212
A-1032,2-[(E)-2-(1-cyano-1-methylethyl)diazen-1-yl]-2-methylpropanenitrile,OZAIFHULBGXAKX-UHFFFAOYSA-N,CC(C)(N=NC(C)(C)C#N)C#N,-2.7132509977
A-1033,2-methylbutyl acrylate,NCTBYWFEJFTVEL-UHFFFAOYSA-N,CCC(C)COC(=O)C=C,-2.6532064055
A-1034,"2-chloro-1,3-benzothiazole",BSQLQMLFTHJVKS-UHFFFAOYSA-N,Clc1sc2ccccc2n1,-2.7325883752
A-1035,"2-aminoethan-1-ol; 6-cyclohexyl-1-hydroxy-4-methyl-1,2-dihydropyridin-2-one",MBRHNTMUYWQHMR-UHFFFAOYSA-N,CC1=CC(=O)N(O)C(=C1)C2CCCCC2.NCCO,-0.9331685906
A-1038,"4,7-dichloroquinoline",HXEWMTXDBOQQKO-UHFFFAOYSA-N,Clc1ccc2c(Cl)ccnc2c1,-2.8026246384
A-1041,2-aminobenzenesulfonic acid,ZMCHBSMFKQYNKA-UHFFFAOYSA-N,Nc1ccccc1[S](O)(=O)=O,-1.7471686412
A-1042,bis(propan-2-yloxy)titaniumbis(ylium) bis((2Z)-4-oxopent-2-en-2-olate),DOOBMVWXHWRGEB-UHFFFAOYSA-N,[Ti+4].CC(C)[O-].CC(C)[O-].CC(=O)[CH-]C(C)=O.CC(=O)[CH-]C(C)=O,-2.0700509817
A-1043,4-acetamidobenzene-1-sulfonyl chloride,GRDXCFKBQWDAJH-UHFFFAOYSA-N,CC(=O)Nc1ccc(cc1)[S](Cl)(=O)=O,-2.8772524161
A-1050,"2,2,6-trimethylcyclohexyl propanoate",JFBKOWCEVLNQHV-UHFFFAOYSA-N,CCC(=O)OC1C(C)CCCC1(C)C,-3.8031812605
A-1051,"1,4-dimethyl benzene-1,4-dicarboxylate",WOZVHXUHUFLZGK-UHFFFAOYSA-N,COC(=O)c1ccc(cc1)C(=O)OC,-3.796856222
A-1052,2-heptylcyclopentan-1-one,PJXHBTZLHITWFX-UHFFFAOYSA-N,CCCCCCCC1CCCC1=O,-3.7694416506
A-1053,benzyl 2-phenylacetate,MIYFJEKZLFWKLZ-UHFFFAOYSA-N,O=C(Cc1ccccc1)OCc2ccccc2,-3.8632748797
A-1056,"N,N-dimethyl[(dimethylcarbamothioyl)sulfanyl]carbothioamide",REQPQFUJGGOFQL-UHFFFAOYSA-N,CN(C)C(=S)SC(=S)N(C)C,-2.8302990647
A-1058,"3,7-dimethyloct-6-en-1-ol",QMVPMAAFGQKVCJ-SNVBAGLBSA-N,C[C@@H](CCO)CCC=C(C)C,-2.7067344575
A-1059,"4,7-dimethyloct-6-en-3-one",WKQWDIFHKYWRTA-UHFFFAOYSA-N,CCC(=O)C(C)CC=C(C)C,-2.7010952437
A-1060,"2-amino-3,5-dimethylbenzene-1-sulfonic acid",CFCXQQUQLZIZPI-UHFFFAOYSA-N,Cc1cc(C)c(N)c(c1)[S](O)(=O)=O,-1.8195435039
A-1062,thiophene,YTPLMLYBLZKORZ-UHFFFAOYSA-N,s1cccc1,-1.4450110492
A-1065,4-[2-(4-hydroxyphenyl)propan-2-yl]phenol,IISBACLAFKSPIT-UHFFFAOYSA-N,CC(C)(c1ccc(O)cc1)c2ccc(O)cc2,-2.8799222949
A-1066,"2,2,2-trichloroacetaldehyde",HFFLGKNGCAIQMO-UHFFFAOYSA-N,ClC(Cl)(Cl)C=O,-0.691340871
A-1067,2-methylbutan-1-ol,QPRQEDXDYOZYLA-UHFFFAOYSA-N,CCC(C)CO,-0.4681010619
A-1068,Fusel oil,PHTQWCKDNZKARW-UHFFFAOYSA-N,CC(C)CCO,-0.4681010619
A-1069,"tetrasodium (6Z)-4-acetamido-5-oxo-6-(2-{7-sulfonato-4-[(E)-2-(4-sulfonatophenyl)diazen-1-yl]naphthalen-1-yl}hydrazin-1-ylidene)-5,6-dihydronaphthalene-1,7-disulfonate",AGKKBBSOKGLVTM-YENKNCRGSA-J,[Na+].[Na+].[Na+].[Na+].CC(=O)Nc1ccc(c2C=C(/C(=N/Nc3ccc(N=Nc4ccc(cc4)[S]([O-])(=O)=O)c5ccc(cc35)[S]([O-])(=O)=O)C(=O)c12)[S]([O-])(=O)=O)[S]([O-])(=O)=O,-1.4612448391
A-1070,"1,3-benzothiazole",IOJUPLGTWVMSFF-UHFFFAOYSA-N,s1cnc2ccccc12,-1.6538265258
A-1073,3-nitrobenzoic acid,AFPHTEQTJZKQAQ-UHFFFAOYSA-N,OC(=O)c1cccc(c1)[N+]([O-])=O,-1.7459071723
A-1074,dioxomolybdenum,QXYJCZRRLLQGCR-UHFFFAOYSA-N,O=[Mo]=O,-3.7396436363
A-1076,"2,4-dihydro-1H-3,1-benzoxazine-2,4-dione",TXJUTRJFNRYTHH-UHFFFAOYSA-N,O=C1Nc2ccccc2C(=O)O1,-2.735417906
A-1077,"2-hydroxy-1,2-diphenylethan-1-one",ISAOCJYIOMOJEB-UHFFFAOYSA-N,OC(c1ccccc1)C(=O)c2ccccc2,-2.8497223519
A-1080,octan-1-ol,KBPLFHHGFOOTCA-UHFFFAOYSA-N,CCCCCCCCO,-2.6375931207
A-1082,Tellurium dioxide,LAJZODKXOMJMPK-UHFFFAOYSA-N,O=[Te]=O,-3.7156062333
A-1085,"methyl 2-[(4-amino-3,5-dichloro-6-fluoropyridin-2-yl)oxy]acetate",GIIKFBXVGYJLEK-UHFFFAOYSA-N,COC(=O)COc1nc(F)c(Cl)c(N)c1Cl,-3.9512810281
A-1088,"3,7-dimethylocta-1,6-dien-3-yl acetate",UWKAYLJWKGQEPM-UHFFFAOYSA-N,CC(C)=CCCC(C)(OC(C)=O)C=C,-3.8157769203
A-1091,"2,6-di-tert-butylphenol",DKCPKDPYUFEZCP-UHFFFAOYSA-N,CC(C)(C)c1cccc(c1O)C(C)(C)C,-4.7135873776