ID,Name,InChIKey,SMILES,Solubility
B-858,"1,6-dioxaspiro[4,4]nonane",YVSCOIUNVKGTND-UHFFFAOYSA-N,C1COC2(C1)CCCO2,-0.1078
B-861,"indeno(1,2,3-cd)pyrene",SXQBHARYMNFBPS-UHFFFAOYSA-N,c1ccc2c(c1)c3ccc4ccc5cccc6cc2c3c4c56,-9.1627
B-862,"7h-dibenzo(c,g)carbazole",STJXCDGCXVZHDU-UHFFFAOYSA-N,[nH]1c2ccc3ccccc3c2c4c1ccc5ccccc45,-6.6277
B-863,benzo(c)phenanthrene,TUAHORSUHVUKBD-UHFFFAOYSA-N,c1ccc2c(c1)ccc3ccc4ccccc4c23,-7.8207
B-864,"benz(a,j)aceanthrylene",ZUAGUFSITPHNKC-UHFFFAOYSA-N,c1ccc2c(c1)ccc3c2cc4cccc5c6ccccc6c3c45,-8.4806
B-865,"4,5-methylenephenanthrene",RKZDZWJDQTZDLD-UHFFFAOYSA-N,C1c2cccc3ccc4cccc1c4c23,-5.2379
B-866,benzo(j)fluoranthene,KHNYNFUTFKJLDD-UHFFFAOYSA-N,c1ccc2c(c1)ccc3c4cccc5cccc(c45)c23,-8.004
B-867,benzo(b)fluoranthene,FTOVXSOBNPWTSH-UHFFFAOYSA-N,c1ccc2c(c1)cc3c4ccccc4c5cccc2c35,-8.2259
B-868,benzo(k)fluoranthene,HAXBIWFMXWRORI-UHFFFAOYSA-N,c1ccc2cc3c4cccc5cccc(c3cc2c1)c45,-8.4989
B-870,"14h-dibenzo[a,j]phenothiazine",FCTDXVQYLPZTNX-UHFFFAOYSA-N,N1c2c(Sc3ccc4ccccc4c13)ccc5ccccc25,-7.9081
B-871,"7h-dibenzo[c,h]phenothiazine",PTOPHPNCDGAXGC-UHFFFAOYSA-N,N1c2ccc3ccccc3c2Sc4c1ccc5ccccc45,-6.8786
B-872,12h-benzo[c]phenothiazine,PGIGZWJIJSINOD-UHFFFAOYSA-N,N1c2ccccc2Sc3ccc4ccccc4c13,-5.8957
B-873,7h-benzo[c]phenothiazine,WUTNPRKQMZJXTR-UHFFFAOYSA-N,N1c2ccccc2Sc3c1ccc4ccccc34,-6.5727
B-874,"dibenz(a,h)acridine",JNCSIWAONQTVCF-UHFFFAOYSA-N,c1ccc2c(c1)ccc3nc4c(ccc5ccccc45)cc23,-6.2447
B-875,phenanthridine,RDOWQLZANAYVLL-UHFFFAOYSA-N,c1ccc2c(c1)cnc3ccccc23,-2.7763
B-876,"1h-1,2,3-triazolo[4,5-d]pyrimidine",GIIGHSIIKVOWKZ-UHFFFAOYSA-N,[nH]1nc2cncnc2n1,-0.2319
B-877,"1,4-diazabicyclo(2,2,2)octane  (dabco)",IMNIMPAHZVJRPE-UHFFFAOYSA-N,C1CN2CCN1CC2,0.6033
B-879,iso-oxazole,CTAPFRYPJLPFDF-UHFFFAOYSA-N,o1cccn1,0.3827
B-880,pyridazine,PBMFSQRYOILNGV-UHFFFAOYSA-N,c1ccnnc1,1.0964
B-881,pyrimidine,CZPWVGJYEJSRLH-UHFFFAOYSA-N,c1cncnc1,1.0964
B-882,cycloheptane,DMEGYFMYUHOHGS-UHFFFAOYSA-N,C1CCCCCC1,-3.5149
B-883,thionazin,IRVDMKJLOCGUBJ-UHFFFAOYSA-N,CCO[P](=S)(OCC)Oc1cnccn1,-2.338
B-884,phosphamidon,RGCLLPNLLBQHPF-CMDGGOBGSA-N,CCN(CC)C(=O)/C(Cl)=C(/C)O[P](=O)(OC)OC,0.5233
B-886,demeton-o,DGLIBALSRMUQDD-UHFFFAOYSA-N,CCO[P](=S)(OCC)OCCSCC,-3.634
B-887,"1,2:3,4-diepoxybutane dl",ZFIVKAOQEXOYFY-UHFFFAOYSA-N,C1OC1C2CO2,1.065
B-891,"l-tyrosine, 3,5-dibromo-",COESHZUDRKCEPA-ZETCQYMHSA-N,N[C@@H](Cc1cc(Br)c(O)c(Br)c1)C(O)=O,-1.9281
B-893,oxydemeton methyl,PMCVMORKVPSKHZ-UHFFFAOYSA-N,CC[S](=O)CCS[P](=O)(OC)OC,0.6086
B-894,hydrazine,OAKJQQAXSVQMHS-UHFFFAOYSA-N,NN,1.4942
B-896,aconitine,XFSBVAOIAHNAPC-XTHSEXKGSA-N,CCN1C[C@]2(COC)[C@H](O)C[C@H](OC)[C@@]34[C@@H]5C[C@]6(O)[C@@H](OC)[C@H](O)[C@](OC(C)=O)([C@@H]([C@H](OC)[C@H]23)C14)[C@H]5[C@H]6OC(=O)c7ccccc7,-3.3187
B-897,meparfynol carbamate,GXCDLJXPZVCHBX-UHFFFAOYSA-N,CCC(C)(OC(N)=O)C#C,-0.9456
B-900,potassium sodium tartrate,LJCNRYVRMXRIQR-OLXYHTOASA-L,[Na+].[K+].O[C@H]([C@@H](O)C([O-])=O)C([O-])=O,0.3984
B-901,"1,1,1-trifluoro-2,2-dichloroethane",OHMHBGPWCHTMQE-UHFFFAOYSA-N,FC(F)(F)C(Cl)Cl,-1.8623
B-903,2-chlorovinyl diethyl phosphate,DKMDOBOUUAGJNY-AATRIKPKSA-N,CCO[P](=O)(OCC)O\C=C\Cl,-1.3316
B-905,bromacil,CTSLUCNDVMMDHG-UHFFFAOYSA-N,CCC(C)N1C(=O)NC(=C(Br)C1=O)C,-2.5057
B-906,isocil,PSYBGEADHLUXCS-UHFFFAOYSA-N,CC(C)N1C(=O)NC(=C(Br)C1=O)C,-2.0604
B-907,mexacarbate,YNEVBPNZHBAYOA-UHFFFAOYSA-N,CNC(=O)Oc1cc(C)c(N(C)C)c(C)c1,-3.3469
B-908,isoleucine,AGPKZVBTJJNPAG-UHFFFAOYSA-N,CCC(C)C(N)C(O)=O,-0.5033
B-909,5-chlorosalicylic acid,NKBASRXWGAGQDP-UHFFFAOYSA-N,OC(=O)c1cc(Cl)ccc1O,-1.237
B-910,1-fluoronaphthalene,CWLKTJOTWITYSI-UHFFFAOYSA-N,Fc1cccc2ccccc12,-3.4527
B-911,"acetamide, n-(4-fluoro-2-methylphenyl)-",RJKWSTDTEPBWBJ-UHFFFAOYSA-N,CC(=O)Nc1ccc(F)cc1C,-1.3593
B-912,"acetamide, n-(2-fluoro-4-methylphenyl)-",WHXUSWHUWNRNHT-UHFFFAOYSA-N,CC(=O)Nc1ccc(C)cc1F,-1.7403
B-913,"1,2,4,5-tetrafluorobenzene",SDXUIOOHCIQXRP-UHFFFAOYSA-N,Fc1cc(F)c(F)cc1F,-2.3757
B-914,a-aminocaproic acid,LRQKBLKVPFOOQJ-YFKPBYRVSA-N,CCCC[C@H](N)C(O)=O,-1.0387
B-915,chlorogenic acid,CWVRJTMFETXNAD-JUHZACGLSA-N,O[C@@H]1C[C@](O)(C[C@@H](OC(=O)\C=C\c2ccc(O)c(O)c2)[C@@H]1O)C(O)=O,-0.9473
B-916,leucine,ROHFNLRQFUQHCH-UHFFFAOYSA-N,CC(C)CC(N)C(O)=O,-1.0456
B-917,cyclohexyl methylphosphonofluoridate,SNTRKUOVAPUGAY-UHFFFAOYSA-N,C[P](F)(=O)OC1CCCCC1,-1.6875
B-919,o-fluorobenzyl chloride,MOBRMRJUKNQBMY-UHFFFAOYSA-N,Fc1ccccc1CCl,-2.541
B-920,1-chloro-2-fluorobenzene,ZCJAYDKWZAWMPR-UHFFFAOYSA-N,Fc1ccccc1Cl,-2.4157
B-921,"benzene, 1-fluoro-4-iodo-",KGNQDBQYEBMPFZ-UHFFFAOYSA-N,Fc1ccc(I)cc1,-3.1257
B-923,fluoroethane,UHCBBWUQDAVSMS-UHFFFAOYSA-N,CCF,-1.3477
B-925,"l-histidine, 3-methyl-",JDHILDINMRGULE-LURJTMIESA-N,Cn1cncc1C[C@H](N)C(O)=O,0.0727
B-926,benzenediazonium hexafluophosphate (1-),GIDPFONPWSEBOB-UHFFFAOYSA-N,F[P-](F)(F)(F)(F)F.N#[N+]c1ccccc1,-1.4438
B-927,2-fluoroethanol,GGDYAKVUZMZKRV-UHFFFAOYSA-N,OCCF,1.1934
B-928,isopestox,UOSHUBFBCPGQAY-UHFFFAOYSA-N,CC(C)N[P](F)(=O)NC(C)C,-0.3574
B-930,"1,1,1-trifluoro-2-propanol",GILIYJDBJZWGBG-UHFFFAOYSA-N,CC(O)C(F)(F)F,0.3094
B-931,"1,1-dichloro-1,2,2,2-tetrafluoroethane",BAMUEXIPKSRTBS-UHFFFAOYSA-N,FC(F)(F)C(F)(Cl)Cl,-3.0961
B-932,"acetic acid, difluoro-",PBWZKZYHONABLN-UHFFFAOYSA-N,OC(=O)C(F)F,1.0176
B-933,andrenosterone,RZRPTBIGEANTGU-IRIMSJTPSA-N,C[C@]12CC(=O)[C@H]3[C@@H](CCC4=CC(=O)CC[C@]34C)[C@@H]1CCC2=O,-3.4843
B-935,4-fluoro-2-propyl-phenol,BQWYJUVFIXTFHH-UHFFFAOYSA-N,CCCc1cc(F)ccc1O,-1.887
B-936,nidroxyzone,FJVAAURIDNIYAE-BJMVGYQFSA-N,NC(=O)N(CCO)/N=C/c1oc(cc1)[N+]([O-])=O,-2.6852
B-938,"benzoic acid, 2-(trifluoromethyl)-",FBRJYBGLCHWYOE-UHFFFAOYSA-N,OC(=O)c1ccccc1C(F)(F)F,-1.5978
B-939,ethisterone,CHNXZKVNWQUJIB-CEGNMAFCSA-N,C[C@]12CCC(=O)C=C1CC[C@@H]3[C@@H]2CC[C@@]4(C)[C@H]3CC[C@@]4(O)C#C,-5.6576
B-940,lithocholic acid,SMEROWZSTRWXGI-HVATVPOCSA-N,C[C@H](CCC(O)=O)[C@H]1CC[C@H]2[C@@H]3CC[C@@H]4C[C@H](O)CC[C@]4(C)[C@H]3CC[C@]12C,-6
B-941,nandrolone,NPAGDVCDWIYMMC-IZPLOLCNSA-N,C[C@]12CC[C@H]3[C@@H](CCC4=CC(=O)CC[C@H]34)[C@@H]1CC[C@@H]2O,-1.9484
B-942,"azuleno[6,5-b]furan-2,6-(3h,4h)-dione, 3a,7,7a,8",BFWXQSLJSDLIAA-GSGOXJSYSA-N,C[C@H]1C[C@H]2OC(=O)[C@@H](C)[C@H]2[C@H](O)C3=C(C)C(=O)C[C@H]13,-1.945
B-944,iodamide,VVDGWALACJEJKG-UHFFFAOYSA-N,CC(=O)NCc1c(I)c(NC(C)=O)c(I)c(C(O)=O)c1I,-2.3208
B-945,dl-isoleucine,AGPKZVBTJJNPAG-CRCLSJGQSA-N,CC[C@H](C)[C@@H](N)C(O)=O,-0.7875
B-946,"benzeneacetic acid, 2,5-dihydroxy-",IGMNYECMUMZDDF-UHFFFAOYSA-N,OC(=O)Cc1cc(O)ccc1O,0.7037
B-947,1h-purin-2-amine,MWBWWFOAEOYUST-UHFFFAOYSA-N,Nc1ncc2[nH]cnc2n1,-1.21
B-948,"3-furanol, tetrahydro-",XDPCNPCKDGQBAN-UHFFFAOYSA-N,OC1CCOC1,1.055
B-949,"benzoic acid, 4-fluoro-3-nitro-",BOJWTAQWPVBIPG-UHFFFAOYSA-N,OC(=O)c1ccc(F)c(c1)[N+]([O-])=O,-1.5809
B-950,m-fluorobenzyl chloride,XBDXMDVEZLOGMC-UHFFFAOYSA-N,Fc1cccc(CCl)c1,-2.5436
B-951,2-propylpiperidine,NDNUANOUGZGEPO-QMMMGPOBSA-N,CCC[C@H]1CCCCN1,-0.8493
B-952,"ethane, 1,1-difluoro-2-methoxy-",CRGZRXUKXVTRNO-UHFFFAOYSA-N,COCC(F)F,-0.2836
B-953,2-cyanoguanidine,QGBSISYHAICWAH-UHFFFAOYSA-N,NC(N)=NC#N,-0.3087
B-954,3-aminopyridine,CUYKNJBYIJFRCU-UHFFFAOYSA-N,Nc1cccnc1,1.0263
B-955,n-(aminocarbonyl)glycine,KZVRXPPUJQRGFN-UHFFFAOYSA-N,NC(=O)NCC(O)=O,-0.5809
B-956,".beta.-alanine, n-(aminocarbonyl)-",JSJWCHRYRHKBBW-UHFFFAOYSA-N,NC(=O)NCCC(O)=O,-0.8014
B-957,d-borneol,DTGKSKDOIYIVQL-ZCUBBSJVSA-N,CC1(C)C2CCC1(C)[C@@H](O)C2,-2.319
B-958,"(1r,4r)-(+)-camphor",DSSYKIVIOFKYAU-XVKPBYJWSA-N,CC1(C)[C@H]2CC[C@@]1(C)C(=O)C2,-3.1825
B-959,quinamine,ALNKTVLUDWIWIH-HLQCWHFUSA-N,O[C@@]12CCO[C@@]1(Nc3ccccc23)[C@@H]4C[C@@H]5CCN4C[C@@H]5C=C,-2.6706
B-960,aspidospermine,ARQOGCYMPUOVHK-ZHHKINOHSA-N,CC[C@@]12CCCN3CC[C@@]4([C@@H](CC1)N(C(C)=O)c5c(OC)cccc45)[C@@H]23,-1.3269
B-961,flurenol,GXAMYUGOODKVRM-UHFFFAOYSA-N,OC(=O)[C@@]1(O)c2ccccc2c3ccccc13,-1.9657
B-962,propoxyphene,XLMALTXPSGQGBX-GCJKJVERSA-N,CCC(=O)O[C@@](Cc1ccccc1)([C@H](C)CN(C)C)c2ccccc2,-5.0097
B-964,"1,1'-sulfonylbis(2-chloroethane)",LUYAMNYBNTVQJG-UHFFFAOYSA-N,ClCC[S](=O)(=O)CCCl,-1.5031
B-965,methylguanidine,CHJJGSNFBQVOTG-UHFFFAOYSA-N,CN=C(N)N,-1.6135
B-966,thiazolsulfone,KVEZIRCKNOTGKY-UHFFFAOYSA-N,Nc1ccc(cc1)[S](=O)(=O)c2sc(N)nc2,-2.805
B-968,"cyclobutaneacetic acid, 3-acetyl-2,2-dimethyl-",SIZDUQQDBXJXLQ-UHFFFAOYSA-N,CC(=O)C1CC(CC(O)=O)C1(C)C,-0.5752
B-969,chenodeoxycholic acid,RUDATBOHQWOJDD-BSWAIDMHSA-N,C[C@H](CCC(O)=O)[C@H]1CC[C@H]2[C@@H]3[C@H](O)C[C@@H]4C[C@H](O)CC[C@]4(C)[C@H]3CC[C@]12C,-3.6402
B-970,equilin,WKRLQDKEXYKHJB-HFTRVMKXSA-N,C[C@]12CC[C@H]3C(=CCc4cc(O)ccc34)[C@@H]1CCC2=O,-5.2795
B-971,hematein,HLUCICHZHWJHLL-UHFFFAOYSA-N,Oc1ccc2c(OCC3(O)CC4=CC(=O)C(=CC4=C23)O)c1O,-2.6994
B-972,glycocholic acid,RFDAIACWWDREDC-FRVQLJSFSA-N,C[C@H](CCC(=O)NCC(O)=O)[C@H]1CC[C@H]2[C@@H]3[C@H](O)C[C@@H]4C[C@H](O)CC[C@]4(C)[C@H]3C[C@H](O)[C@]12C,-5.1495
B-973,picropodophyllin,YJGVMLPVUAXIQN-HAEOHBJNSA-N,COc1cc(cc(OC)c1OC)[C@H]2[C@H]3[C@H](COC3=O)[C@@H](O)c4cc5OCOc5cc24,-3.6174
B-974,safranine t,QRYAEWIQIBAZOJ-UHFFFAOYSA-N,[Cl-].Cc1cc2nc3c(C)c(N)ccc3[n+](c4ccccc4)c2cc1N,-0.8462
B-976,cholanthrene,KVFJBIQWENJTDM-UHFFFAOYSA-N,C1Cc2c3ccc4ccccc4c3cc5cccc1c25,-7.8613
B-978,tetryl,AGUIVNYEYSCPNI-UHFFFAOYSA-N,CN(c1c(cc(cc1[N+]([O-])=O)[N+]([O-])=O)[N+]([O-])=O)[N+]([O-])=O,-3.5889
B-979,aucubin,RJWJHRPNHPHBRN-FKVJWERZSA-N,OC[C@H]1O[C@@H](O[C@@H]2OC=C[C@H]3[C@H](O)C=C(CO)[C@@H]23)[C@H](O)[C@@H](O)[C@@H]1O,0.0119
B-981,"2,4,6-trimethylbenzoic acid",FFFIRKXTFQCCKJ-UHFFFAOYSA-N,Cc1cc(C)c(c(C)c1)C(O)=O,-2.3566
B-982,"benzoic acid, 2,6-dihydroxy-4-methyl-",YBZAVRDNSPUMFK-UHFFFAOYSA-N,Cc1cc(O)c(C(O)=O)c(O)c1,-2.0496
B-983,"2,4,6(1h,3h,5h)-pyrimidinetrione, 5-nitro-",ABICJYZKIYUWEE-UHFFFAOYSA-N,[O-][N+](=O)C1C(=O)NC(=O)NC1=O,-2.284
B-984,santonin,XJHDMGJURBVLLE-BOCCBSBMSA-N,C[C@H]1[C@@H]2CC[C@@]3(C)C=CC(=O)C(=C3[C@H]2OC1=O)C,-3.0905
B-985,epiandrosterone,QGXBDMJGAMFCBF-LUJOEAJASA-N,C[C@]12CC[C@H](O)C[C@@H]1CC[C@@H]3[C@@H]2CC[C@@]4(C)[C@H]3CCC4=O,-4.1577
B-986,ecgonine,PHMBVCPLDPDESM-RLXKETGRSA-N,CN1C2CCC1[C@H]([C@@H](O)C2)C(O)=O,-0.0173
B-987,fervenulin,RRTKVYSLIGQWCO-UHFFFAOYSA-N,CN1C(=O)N(C)c2nncnc2C1=O,-1.9849
B-988,osthole,MBRLOUHOWLUMFF-UHFFFAOYSA-N,COc1ccc2C=CC(=O)Oc2c1CC=C(C)C,-4.3087
B-989,binapacryl,ZRDUSMYWDRPZRM-UHFFFAOYSA-N,CCC(C)c1cc(cc(c1OC(=O)C=C(C)C)[N+]([O-])=O)[N+]([O-])=O,-5.5083
B-990,iridomyrmecin,LYEFRAMOOLOUKA-UHFFFAOYSA-N,CC1CCC2C(C)C(=O)OCC12,-1.9249
B-992,"pyrrolo[2,1-b]quinazolin-9(1h)-one,2,3-dihydro-3",SDIVYZXRQHWCKF-VIFPVBQESA-N,O[C@H]1CCN2C(=O)c3ccccc3N=C12,-2.106
B-993,caulophylline,CULUKMPMGVXCEI-UWVGGRQHSA-N,CN1C[C@@H]2C[C@@H](C1)C3=CC=CC(=O)N3C2,0.6484
B-994,lumazine,UYEUUXMDVNYCAM-UHFFFAOYSA-N,O=C1NC(=O)c2nccnc2N1,-2.1183
B-995,"1h-pyrrole-3-propanoic acid, 2,5-dihydro-4-methy",ZAFOEDODWZIXMO-UHFFFAOYSA-N,CC1=C(CCC(O)=O)C(=O)NC1=O,-0.6608
B-996,d-quercitol,IMPKVMRTXBRHRB-MBMOQRBOSA-N,O[C@@H]1C[C@@H](O)[C@H](O)C(O)[C@H]1O,-0.1739
B-997,"azulene, 1,4-dimethyl-7-(1-methylethyl)-",FWKQNCXZGNBPFD-UHFFFAOYSA-N,CC(C)c1ccc(C)c2ccc(C)c2c1,-5.4752
B-998,monotropitoside,VHUNCYDAXJGCLO-UHFFFAOYSA-N,COC(=O)c1ccccc1OC2OC(COC3OCC(O)C(O)C3O)C(O)C(O)C2O,-0.7418
B-999,1(2h)-isoquinolinone,VDBNYAPERZTOOF-UHFFFAOYSA-N,O=C1NC=Cc2ccccc12,-2.4842
B-1000,chrysarobin,JBGKVNQFVAJOGC-UHFFFAOYSA-N,Cc1cc(O)c2c(O)c3c(O)cccc3cc2c1,-3.0585
B-1001,leucopterin,SFLOGVVDXPCWGR-UHFFFAOYSA-N,NC1=NC(=O)C2=C(N1)NC(=O)C(=O)N2,-5.1655
B-1002,atropic acid,ONPJWQSDZCGSQM-UHFFFAOYSA-N,OC(=O)C(=C)c1ccccc1,-2.0568
B-1003,2-amino-1-phenyl-propan-1-ol,DLNKOYKMWOXYQA-IONNQARKSA-N,C[C@H](N)[C@@H](O)c1ccccc1,-0.8786
B-1004,alpha-d-glucose,WQZGKKKJIJFFOK-DVKNGEFBSA-N,OC[C@H]1O[C@H](O)[C@H](O)[C@@H](O)[C@@H]1O,0.4433
B-1005,"1,3-cyclohexanedione, 5-phenyl-",ZFVDSCASCRHXCP-SNVBAGLBSA-N,OC1=CC(=O)C[C@@H](C1)c2ccccc2,-2.5113
B-1006,anabasine,MTXSIJUGVMTTMU-JTQLQIEISA-N,C1CC[C@H](NC1)c2cccnc2,0.7898
B-1007,gentisyl alcohol,PUZSUVGRVHEUQO-UHFFFAOYSA-N,OCc1cc(O)ccc1O,0.8534
B-1008,bayer 15080,ORLIFVYIUIQGOA-UHFFFAOYSA-N,O=Nc1ccc(NNC(=O)c2ccccc2)cc1,-4.6835
B-1009,salinazid,CYKAGXAJJFUETC-LUAWRHEFSA-N,O=C(NN\C=C/1C=CC=CC1=O)c2ccncc2,-3.6835
B-1010,"1h-indole, 2,3-dihydro-",LPAGFVYQRIESJQ-UHFFFAOYSA-N,C1Cc2ccccc2N1,-1.0427
B-1011,"2-butenal, 2-methyl-, (e)-",ACWQBUSCFPJUPN-HWKANZROSA-N,C\C=C(/C)C=O,-0.527
B-1012,"1,3-dioxolane, 2-methyl-",HTWIZMNMTWYQRN-UHFFFAOYSA-N,CC1OCCO1,0.8789
B-1013,norcamphor,KPMKEVXVVHNIEY-UHFFFAOYSA-N,O=C1CC2CCC1C2,-1.7565
B-1014,"3-hydroxy-4-oxo-4h-pyran-2,6-dicarboxylic acid",SELRUPTWVICDPZ-UHFFFAOYSA-N,OC(O)=C1OC(=CC(=O)C1=O)C(O)=O,-1.377
B-1015,"ethanone, 1-(4-hydroxy-3-methoxyphenyl)-",DFYRUELUNQRZTB-UHFFFAOYSA-N,COc1cc(ccc1O)C(C)=O,-1.5216
B-1016,norvaline,SNDPXSYFESPGGJ-SCSAIBSYSA-N,CCC[C@@H](N)C(O)=O,-0.0687
B-1017,citraconic acid,HNEGQIOMVPPMNR-IHWYPQMZSA-N,C\C(=C\C(O)=O)C(O)=O,0.7795
B-1018,"phenol, 2-methyl-5-(1-methylethyl)-",RECUKUPTGUEGMW-UHFFFAOYSA-N,CC(C)c1ccc(C)c(O)c1,-2.0798
B-1019,beta-eucaine,ZYHGIAPHLSTGMX-UHFFFAOYSA-N,CC1CC(CC(C)(C)N1)OC(=O)c2ccccc2,-1.922
B-1020,"acetic acid, oxo(phenylamino)-",PQJZHMCWDKOPQG-UHFFFAOYSA-N,OC(=O)C(=O)Nc1ccccc1,-1.3019
B-1021,n-benzyl-3-chloropropanamide,JPYQFYIEOUVJDU-UHFFFAOYSA-N,ClCCC(=O)NCc1ccccc1,-3.2959
B-1022,"2-butenoic acid, 4-[(aminocarbonyl)amino]-4-oxo-",GWGLGTKSTGSWGQ-UHFFFAOYSA-N,NC(=O)NC(=O)C=CC(O)=O,-1.9202
B-1023,bis(ethylxanthogen),FVIGODVHAVLZOO-UHFFFAOYSA-N,CCOC(=S)SSC(=S)OCC,-4.9432
B-1025,trimethyleneoxide,AHHWIHXENZJRFG-UHFFFAOYSA-N,C1COC1,1.236
B-1027,(z)-2-butenoic acid (isocrotonic acid),LDHQCZJRKDOVOX-IHWYPQMZSA-N,C\C=C/C(O)=O,1.065
B-1029,4-aminopyridine,NUKYPUAOHBNCPY-UHFFFAOYSA-N,Nc1ccncc1,-0.0529
B-1030,2-aminopyridine,ICSNLGPSRYBMBD-UHFFFAOYSA-N,Nc1ccccn1,0.9757
B-1031,"1,4-dithiane",LOZWAPSEEHRYPG-UHFFFAOYSA-N,C1CSCCS1,-1.6029
B-1032,suberic acid,TYFQFVWCELRYAO-UHFFFAOYSA-N,OC(=O)CCCCCCC(O)=O,-1.1673
B-1034,di-2-chloroethyl sulfide,QKSKPIVNLNLAAV-UHFFFAOYSA-N,ClCCSCCCl,-2.3666
B-1035,"2,4-hexadienedioic acid,",TXXHDPDFNKHHGW-CCAGOZQPSA-N,OC(=O)\C=C/C=C\C(O)=O,-2.8516
B-1036,iodine cyanide,WPBXOELOQKLBDF-UHFFFAOYSA-N,IC#N,-0.6333
B-1037,2-bromo-2-methylpropane,RKSOPLXZQNSWAS-UHFFFAOYSA-N,CC(C)(C)Br,-2.3586
B-1038,borneol,DTGKSKDOIYIVQL-UHFFFAOYSA-N,CC1(C)C2CCC1(C)C(O)C2,-2.3202
B-1040,hydrocortisone tebutate,FNFPHNZQOKBKHN-UHFFFAOYSA-N,CC(C)(C)CC(=O)OCC(=O)C1(O)CCC2C3CCC4=CC(=O)CCC4(C)C3C(O)CC12C,-5.5111
B-1041,tetranitromethane,NYTOUQBROMCLBJ-UHFFFAOYSA-N,[O-][N+](=O)C([N+]([O-])=O)([N+]([O-])=O)[N+]([O-])=O,-2.3381
B-1042,pholcodine,GPFAJKDEDBRFOS-SLITUTQKSA-N,CN1CC[C@]23[C@H]4Oc5c(OCCN6CCOCC6)ccc(C[C@@H]1C2C=C[C@@H]4O)c35,-1.2994
B-1043,"2,4,6(1h,3h,5h)-pyrimidinetrione, 5-ethyl-5-(1-p",ZFVLHMJCLWOOOY-UHFFFAOYSA-N,CCC1(N2CCCCC2)C(=O)NC(=O)NC1=O,-2.1562
B-1045,diosgenin,WQLVFSAGQJTQCK-VKROHFNGSA-N,C[C@@H]1CC[C@@]2(OC1)O[C@H]3C[C@H]4[C@@H]5CC=C6C[C@@H](O)CC[C@]6(C)[C@H]5CC[C@]4(C)[C@H]3[C@@H]2C,-7.3166
B-1046,raffinose,MUPFEKGTMRGPLJ-ZQSKZDJDSA-N,OC[C@H]1O[C@H](OC[C@H]2O[C@H](O[C@]3(CO)O[C@H](CO)[C@@H](O)[C@@H]3O)[C@H](O)[C@@H](O)[C@@H]2O)[C@H](O)[C@@H](O)[C@H]1O,-0.3962
B-1047,tripropyl phosphate,RXPQRKFMDQNODS-UHFFFAOYSA-N,CCCO[P](=O)(OCCC)OCCC,-1.5412
B-1049,1-chloro-2-methylpropene,KWISWUFGPUHDRY-UHFFFAOYSA-N,CC(C)=CCl,-1.9569
B-1050,methallyl alcohol,BYDRTKVGBRTTIT-UHFFFAOYSA-N,CC(=C)CO,0.4298
B-1051,2-butanethiol,LOCHFZBWPCLPAN-UHFFFAOYSA-N,CCC(C)S,-1.8346
B-1052,"2,3-dimethyl-1,3-butadiene",SDJHPPZKZZWAKF-UHFFFAOYSA-N,CC(=C)C(C)=C,-2.4014
B-1054,acetoin,ROWKJAVDOGWPAT-UHFFFAOYSA-N,CC(O)C(C)=O,1.055
B-1055,abietic acid,RSWGJHLUYNHPMX-ONCXSQPRSA-N,CC(C)C1=CC2=CC[C@@H]3[C@](C)(CCC[C@@]3(C)C(O)=O)[C@H]2CC1,-3.7959
B-1056,"3,11-dihydroxy-androstan-17-one",PIXFHVWJOVNKQK-HJJNUGAVSA-N,CC12CC[C@H](O)CC1CCC3C4CCC(=O)C4(C)CC(O)C23,-3.5932
B-1057,"benzeneacetic acid, .alpha.-hydroxy-.alpha.-meth",NWCHELUCVWSRRS-UHFFFAOYSA-N,CC(O)(C(O)=O)c1ccccc1,-0.8949
B-1060,methyl malonic acid,ZIYVHBGGAOATLY-UHFFFAOYSA-N,CC(C(O)=O)C(O)=O,0.7597
B-1061,dl-valine,KZSNJWFQEVHDMF-UHFFFAOYSA-N,CC(C)C(N)C(O)=O,-0.1971
B-1064,beta-peltatin,HLBPOYVRLSXWJJ-PDSMFRHLSA-N,COc1cc(cc(OC)c1OC)[C@H]2[C@@H]3[C@H](COC3=O)Cc4c(O)c5OCOc5cc24,-4.5035
B-1065,fluorescein,GNBHRKFJIUUOQI-UHFFFAOYSA-N,Oc1ccc2c(Oc3cc(O)ccc3C24OC(=O)c5ccccc45)c1,-3.8226
B-1066,"6-formyl-2,3-dimethoxybenzoic acid",HVXXOIGTXJOVON-UHFFFAOYSA-N,COc1ccc(C=O)c(C(O)=O)c1OC,-1.9247
B-1067,dioxypyramidon,IRTZMJWVZQYURE-UHFFFAOYSA-N,CN(C)C(=O)C(=O)N(N(C)C(C)=O)c1ccccc1,-0.5345
B-1069,"8-quinolinol, 5,7-dibromo-",ZDASUJMDVPTNTF-UHFFFAOYSA-N,Oc1c(Br)cc(Br)c2cccnc12,-4.1938
B-1070,hydroquinine,LJOQGZACKSYWCH-UHFFFAOYSA-N,CCC1CN2CCC1CC2C(O)c3ccnc4ccc(OC)cc34,-3.0514
B-1071,"1,6-naphthalenedisulfonic acid",HEWDOWUUTBCVJP-UHFFFAOYSA-N,O[S](=O)(=O)c1ccc2c(cccc2[S](O)(=O)=O)c1,0.5402
B-1072,propranolol,AQHHHDLHHXJYJD-UHFFFAOYSA-N,CC(C)NCC(O)COc1cccc2ccccc12,-3.6202
B-1073,tryptazan,IFEKQNAXDMZERW-UHFFFAOYSA-N,NC(Cc1[nH]nc2ccccc12)C(O)=O,-1.4091
B-1076,allaric acid,DSLZVSRJTYRBFB-GNSDDBTRSA-N,O[C@H]([C@H](O)[C@H](O)C(O)=O)[C@@H](O)C(O)=O,-0.3225
B-1077,sodium gluconate,UPMFZISCCZSDND-UHFFFAOYSA-M,[Na+].OCC(O)C(O)C(O)C(O)C([O-])=O,0.4321
B-1078,cupric gluconate,OCUCCJIRFHNWBP-IYEMJOQQSA-L,[Cu++].OC[C@@H](O)[C@@H](O)[C@H](O)[C@@H](O)C([O-])=O.OC[C@@H](O)[C@@H](O)[C@H](O)[C@@H](O)C([O-])=O,-0.1798
B-1079,thiophene-2-carboxylic acid,QERYCTSHXKAMIS-UHFFFAOYSA-N,OC(=O)c1sccc1,-1.2327
B-1080,1-methyl-2-isopropylbenzene,WWRCMNKATXZARA-UHFFFAOYSA-N,CC(C)c1ccccc1C,-3.7606
B-1081,"ethanedione, bis(2-hydroxy-5-nitrophenyl)-",MLHGVVVOOIXMQL-UHFFFAOYSA-N,Oc1ccc(cc1C(=O)C(=O)c2cc(ccc2O)[N+]([O-])=O)[N+]([O-])=O,-3.5214
B-1082,"ethanone, 1-(2,3,4-trihydroxyphenyl)-",XIROXSOOOAZHLL-UHFFFAOYSA-N,CC(=O)c1ccc(O)c(O)c1O,-2.0216
B-1083,trimellitic acid,ARCGXLSVLAOJQL-UHFFFAOYSA-N,OC(=O)c1ccc(C(O)=O)c(c1)C(O)=O,-1.0003
B-1084,"3,4-dinitrobenzoic acid",OMVRRHJJQILIJX-UHFFFAOYSA-N,OC(=O)c1ccc(c(c1)[N+]([O-])=O)[N+]([O-])=O,-1.5005
B-1085,n-(aminocarbonyl)-2-(1-methylethyl)4-pentenamide,KSUUMAWCGDNLFK-UHFFFAOYSA-N,CC(C)C(CC=C)C(=O)NC(N)=O,-2.7469
B-1087,anthranol,AUKRYONWZHRJRE-UHFFFAOYSA-N,Oc1c2ccccc2cc3ccccc13,-4.7329
B-1088,"1,1-diphenylethylene",ZMYIIHDQURVDRB-UHFFFAOYSA-N,C=C(c1ccccc1)c2ccccc2,-4.4363
B-1090,"1,2-cycloheptanedione, dioxime",MYDALHRLYFBVMU-UHFFFAOYSA-N,ONC1=C(CCCCC1)N=O,-1.4249
B-1091,"2h-1-benzopyran-2-one, 7-methoxy-",LIIALPBMIOVAHH-UHFFFAOYSA-N,COc1ccc2C=CC(=O)Oc2c1,-3.1221
B-1092,"1,2-propanediol, 3-(2-methoxyphenoxy)-, 1-carbam",GNXFOGHNGIVQEH-UHFFFAOYSA-N,COc1ccccc1OCC(O)COC(N)=O,-1.5251
B-1093,"benzoic acid, sodium salt",WXMKPNITSTVMEF-UHFFFAOYSA-M,[Na+].[O-]C(=O)c1ccccc1,0.5864
B-1094,c.i. basic orange 2,MCTQNEBFZMBRSQ-UHFFFAOYSA-N,[H+].[Cl-].Nc1ccc(N=Nc2ccccc2)c(N)c1,-4.0947
B-1095,"2,4-d, ethyl ester",JSLBZIVMVVHMDJ-UHFFFAOYSA-N,CCOC(=O)COc1ccc(Cl)cc1Cl,-3.3503
B-1096,"1,3-benzenediol, 4-pentyl-",PJHYOCWMKYASAB-UHFFFAOYSA-N,CCCCCc1ccc(O)cc1O,-1.9548
B-1097,isovaleryl diethylamide,QZMQDHNCNUGQSO-UHFFFAOYSA-N,CCN(CC)C(=O)CC(C)C,-0.5946
B-1098,dmtt (dazomet),QAYICIQNSGETAS-UHFFFAOYSA-N,CN1CSC(=S)N(C)C1,-1.7331
B-1099,"2-propanol, 1,3-diiodo-",DNKPFCQEGBJJTE-UHFFFAOYSA-N,OC(CI)CI,-1.3971
B-1100,"n,n-dimethylthiourea",VLCDUOXHFNUCKK-UHFFFAOYSA-N,CNC(=S)NC,0.9823
B-1101,"1,1-dimethoxyethane",SPEUIVXLLWOEMJ-UHFFFAOYSA-N,COC(C)OC,1.0452
B-1102,butyl malonic acid,MCRZWYDXIGCFKO-UHFFFAOYSA-N,CCCCC(C(O)=O)C(O)=O,0.4369
B-1103,m-cymene,XCYJPXQACVEIOS-UHFFFAOYSA-N,CC(C)c1cccc(C)c1,-3.4994
B-1104,2-chloro-4-methyl-6-(dimethylamino)pyrimidine,HJIUPFPIEBPYIE-UHFFFAOYSA-N,CN(C)c1cc(C)nc(Cl)n1,-1.2615
B-1105,digallic acid,COVFEVWNJUOYRL-UHFFFAOYSA-N,OC(=O)c1cc(O)c(O)c(OC(=O)c2cc(O)c(O)c(O)c2)c1,-2.8092
B-1106,4-ethylpyridine,VJXRKZJMGVSXPX-UHFFFAOYSA-N,CCc1ccncc1,-0.0006
B-1108,"2,6-dibromoquinonechloroimide",JYWKEVKEKOTYEX-UHFFFAOYSA-N,ClN=C1C=C(Br)C(=O)C(=C1)Br,-3.7068
B-1109,"l-tyrosine, n-methyl-",AXDLCFOOGCNDST-VIFPVBQESA-N,CN[C@@H](Cc1ccc(O)cc1)C(O)=O,-2.1325
B-1110,bis(2-chloroethyl)ethylamine,UQZPGHOJMQTOHB-UHFFFAOYSA-N,CCN(CCCl)CCCl,-3.0265
B-1111,butyl cinnamate,OHHIVLJVBNCSHV-MDZDMXLPSA-N,CCCCOC(=O)/C=C/c1ccccc1,-1.6112
B-1112,benzyl methyl ether,GQKZBCPTCWJTAS-UHFFFAOYSA-N,COCc1ccccc1,-1.6098
B-1113,c.i. disperse black 3,BVRIUXYMUSKBHG-UHFFFAOYSA-N,CN(C)c1ccc(cc1)N=Nc2ccc(N)cc2,-4.594
B-1114,"2-propenoic acid, 3-(2-furanyl)-",ZCJLOOJRNPHKAV-ONEGZZNKSA-N,OC(=O)/C=C/c1occc1,-1.8392