ID,Name,InChIKey,SMILES,Solubility
A-4374,"2-[7-(diethylamino)-2-oxo-2H-1-benzopyran-3-yl]-1,3-dimethyl-1H-benzimidazolium chloride",LCVNGSHJQQOSDB-UHFFFAOYSA-M,[Cl-].CCN(CC)c1ccc2C=C(C(=O)Oc2c1)c3n(C)c4ccccc4[n+]3C,-1.4505613752
A-4376,4-methylpentan-2-one,NTIZESTWPVYFNL-UHFFFAOYSA-N,CC(C)CC(C)=O,-0.8514795392
A-4377,2-methoxyaniline,VMPITZXILSNTON-UHFFFAOYSA-N,COc1ccccc1N,-0.9443240129
A-4379,{2-[2-(ethenyloxy)ethoxy]ethoxy}ethene,SAMJGBVVQUEMGC-UHFFFAOYSA-N,C=COCCOCCOC=C,-1.0530702077
A-4383,"trisodium 7-({4-chloro-6-[(3-sulfonatophenyl)amino]-1,3,5-triazin-2-yl}(methyl)amino)-4-hydroxy-3-[(E)-2-(2-sulfonatophenyl)diazen-1-yl]naphthalene-2-sulfonate",HTXSZYABOIULBS-ZHMXUHHZSA-K,[Na+].[Na+].[Na+].CN(c1ccc2c(c1)C=C(/C(=N/Nc3ccccc3[S]([O-])(=O)=O)C2=O)[S]([O-])(=O)=O)c4nc(Cl)nc(Nc5cccc(c5)[S]([O-])(=O)=O)n4,-0.7520299872
A-4386,copper(2+) dinitrate,XTVVROIMIGLXTD-UHFFFAOYSA-N,[Cu++].[O-][N+]([O-])=O.[O-][N+]([O-])=O,0.8661228867
A-4392,1H-pyrazole,WTKZEGDFNFYCGP-UHFFFAOYSA-N,[nH]1cccn1,1.2878896498
A-4393,[2-[[4-[(2-chloro-4-nitrophenyl)azo]phenyl]ethylamino]ethyl](2-hydroxypropyl)dimethylammonium acetate,XSFKEMHKDFPDNK-UHFFFAOYSA-M,CCN(CC[N+](C)(C)CC(C)O)c1ccc(cc1)N=Nc2ccc(cc2Cl)[N+]([O-])=O.CC([O-])=O,-0.5731459846
A-4394,[2-[[4-[(2-chloro-4-nitrophenyl)azo]phenyl]ethylamino]ethyl](2-hydroxypropyl)dimethylammonium chloride,ACBFJDARQXVXLX-UHFFFAOYSA-M,[Cl-].CCN(CC[N+](C)(C)CC(C)O)c1ccc(cc1)N=Nc2ccc(cc2Cl)[N+]([O-])=O,-0.5518943051
A-4395,copper(2+) ion bis(5-oxopyrrolidine-2-carboxylate),CKBLQUOAMGLVCH-UHFFFAOYSA-L,[Cu++].[O-]C(=O)C1CCC(=O)N1.[O-]C(=O)C2CCC(=O)N2,-0.384250204
A-4396,disodium 3-[(E)-2-{3-methoxy-4-[({2-methoxy-4-[(E)-2-(3-sulfonatophenyl)diazen-1-yl]phenyl}carbamoyl)amino]phenyl}diazen-1-yl]benzene-1-sulfonate,MFZGSFUTGDGCSC-UHFFFAOYSA-L,[Na+].[Na+].COc1cc(ccc1NC(=O)Nc2ccc(cc2OC)N=Nc3cccc(c3)[S]([O-])(=O)=O)N=Nc4cccc(c4)[S]([O-])(=O)=O,-0.714875651
A-4400,1-hydroxypropan-2-yl 2-methylprop-2-enoate 2-hydroxypropyl 2-methylprop-2-enoate,ZMARGGQEAJXRFP-UHFFFAOYSA-N,CC(CO)OC(=O)C(C)=C,-0.0449315461
A-4401,"7-methyl-3,4-dihydro-2H-1,5-benzodioxepin-3-one",SWUIQEBPZIHZQS-UHFFFAOYSA-N,Cc1ccc2OCC(=O)COc2c1,-1.1141554489
A-4402,"diethyl pyridine-2,4-dicarboxylate",MUUDQLHCIAOWPR-UHFFFAOYSA-N,CCOC(=O)c1ccnc(c1)C(=O)OCC,-1.2184148997
A-4404,"potassium sodium 4,4'-bis[6-anilino-4-[bis(2-hydroxyethyl)amino]-1,3,5-triazin-2-yl]amino]stilbene-2,2'-disulphonate",DQMJISXEQAOPNR-MOSUJMLHSA-L,[Na+].[Na+].[K].[K].OCCN(CCO)c1nc(Nc2ccccc2)nc(Nc3ccc(\C=C\c4ccc(Nc5nc(Nc6ccccc6)nc(n5)N(CCO)CCO)cc4[S]([O-])(=O)=O)c(c3)[S]([O-])(=O)=O)n1,-1.8879601369
A-4405,2-hydroxy-2-methyl-1-phenylpropan-1-one,XMLYCEVDHLAQEL-UHFFFAOYSA-N,CC(C)(O)C(=O)c1ccccc1,-1.0915320913
A-4406,"5-methyl-3a,4,7,7a-tetrahydro-2-benzofuran-1,3-dione",OEMSKMUAMXLNKL-UHFFFAOYSA-N,CC1=CCC2C(C1)C(=O)OC2=O,-1.0999943697
A-4407,[(2-ethylhexyl)oxy]phosphonic acid,FZQYZMODYSBPES-UHFFFAOYSA-N,CCCCC(CC)CO.O[P](O)(O)=O,-1.2377892845
A-4411,2-methylbutanal,BYGQBDHUGHBGMD-UHFFFAOYSA-N,CCC(C)C=O,-0.8212312637
A-4412,"N,N-diisobutylformamide",NTYICSDTCGMBQM-UHFFFAOYSA-N,CC(C)CN(CC(C)C)C=O,-1.082666634
A-4414,"N-(6-amino-1,3-dimethyl-2,4-dioxo-1,2,3,4-tetrahydropyrimidin-5-yl)formamide",ZNDGAXCBZGSJGU-UHFFFAOYSA-N,CN1C(=C(NC=O)C(=O)N(C)C1=O)N,-1.1831208546
A-4415,"trisodium 5-({4-chloro-6-[ethyl(phenyl)amino]-1,3,5-triazin-2-yl}amino)-4-hydroxy-3-[(E)-2-(4-methyl-2-sulfonatophenyl)diazen-1-yl]naphthalene-2,7-disulfonate",WIBRJYWLQKJILM-YFVOZPKESA-K,[Na+].[Na+].[Na+].CCN(c1ccccc1)c2nc(Cl)nc(Nc3cc(cc4C=C(\C(=N/Nc5ccc(C)cc5[S]([O-])(=O)=O)C(=O)c34)[S]([O-])(=O)=O)[S]([O-])(=O)=O)n2,-0.8004343948
A-4416,2-[(prop-2-en-1-yloxy)methyl]oxirane,LSWYGACWGAICNM-UHFFFAOYSA-N,C=CCOCC1CO1,0.049756882
A-4423,"ethyl (2-methyl-1,3-dioxolan-2-yl)acetate",XWEOGMYZFCHQNT-UHFFFAOYSA-N,CCOC(=O)CC1(C)OCCO1,-0.1448235929
A-4424,"3,3'-[azoxybis[(2-methoxy-p-phenylene)azo]]bis[4,5-dihydroxynaphthalene-2,7-disulphonic] acid, lithium sodium salt",OJJZXLAZFFTFNT-AZMQIZTHSA-J,[Li+].[Li+].[Na+].[Na+].COc1cc(ccc1N\N=C/2C(=O)c3c(O)cc(cc3C=C2[S]([O-])(=O)=O)[S]([O-])(=O)=O)N(O)\N=C\4C=CC(=N\N=C\5C(=O)c6c(O)cc(cc6C=C5[S]([O-])(=O)=O)[S]([O-])(=O)=O)\C(=C4)OC,-0.9094796777
A-4426,potassium vanadium trioxide,BQFYGYJPBUKISI-UHFFFAOYSA-N,[K+].[O-][V](=O)=O,-0.0465738269
A-4427,lanthanum trinitrate,FZLIPJUXYLNCLC-UHFFFAOYSA-N,[La],0.9471841061
A-4428,"dilithium(1+) ion sodium hydrogen 4-amino-6-(2-{5-[(5-chloro-2,6-difluoropyrimidin-4-yl)amino]-2-sulfonatophenyl}diazen-1-yl)-5-hydroxy-3-(2-{4-[2-(sulfonatooxy)ethanesulfonyl]phenyl}diazen-1-yl)naphthalene-2,7-disulfonate",OBOXNUGISJYBKV-ZKLNYUHUSA-J,[Li+].[Li+].[Na+].[Na+].Nc1c(N=Nc2ccc(cc2)[S](=O)(=O)CCO[S]([O-])(=O)=O)c(cc3C=C(\C(=N/Nc4cc(Nc5nc(F)nc(F)c5Cl)ccc4[S]([O-])(=O)=O)C(=O)c13)[S]([O-])(=O)=O)[S]([O-])(=O)=O,-0.9138010179
A-4429,"5-[[4-chloro-6-[(3-sulphophenyl)amino]-1,3,5-triazin-2-yl]amino]-4-hydroxy-3-[[4-[[2-(sulphooxy)ethyl]sulphonyl]phenyl]azo]naphthalene-2,7-disulphonic acid, sodium salt",FBVKADSDGSVOTJ-SADQMHESSA-J,[Na+].[Na+].[Na+].[Na+].[O-][S](=O)(=O)OCC[S](=O)(=O)c1ccc(N\N=C/2C(=O)c3c(Nc4nc(Cl)nc(Nc5cccc(c5)[S]([O-])(=O)=O)n4)cc(cc3C=C2[S]([O-])(=O)=O)[S]([O-])(=O)=O)cc1,-0.903187957
A-4430,"1,4-dimethyl butanedioate",MUXOBHXGJLMRAB-UHFFFAOYSA-N,COC(=O)CCC(=O)OC,-0.0752231636
A-4433,"1,2-bis(oxiran-2-ylmethyl) cyclohex-4-ene-1,2-dicarboxylate",KTPIWUHKYIJBCR-UHFFFAOYSA-N,O=C(OCC1CO1)C2CC=CCC2C(=O)OCC3CO3,-1.3401088604
A-4434,calcium bis((2Z)-4-oxopent-2-en-2-olate),XVYOQBDTLDXFQL-UHFFFAOYSA-N,[Ca++].CC(=O)[CH-]C(C)=O.CC(=O)[CH-]C(C)=O,-1.2665270421
A-4435,disodium 6-amino-5-[(E)-2-[4-(2-bromoprop-2-enamido)-2-sulfonatophenyl]diazen-1-yl]-4-hydroxynaphthalene-2-sulfonate,LRXBCDZWNALTBO-UHFFFAOYSA-L,[Na+].[Na+].[O-][S](=O)(=O)C1=CC(=O)C2=C(NNc3ccc(NC(=O)C(Br)=C)cc3[S]([O-])(=O)=O)C(=N)C=CC2=C1,-1.6785332004
A-4436,"3,4-dihydroxybenzonitrile",NUWHYWYSMAPBHK-UHFFFAOYSA-N,Oc1ccc(cc1O)C#N,-1.0235160951
A-4437,2-[2-(2-{2-[(2-methylprop-2-enoyl)oxy]ethoxy}ethoxy)ethoxy]ethyl 2-methylprop-2-enoate,LTHJXDSHSVNJKG-UHFFFAOYSA-N,CC(=C)C(=O)OCCOCCOCCOCCOC(=O)C(C)=C,-1.4186392601
A-4438,4-aminobenzenesulfonic acid,HVBSAKJJOYLTQU-UHFFFAOYSA-N,Nc1ccc(cc1)[S](O)(=O)=O,-1.1412730253
A-4439,methoxycyclopentane,SKTCDJAMAYNROS-UHFFFAOYSA-N,COC1CCCC1,-0.9037886388
A-4440,"3,4-diaminobenzenesulfonic acid",FKSRSWQTEJTBMI-UHFFFAOYSA-N,Nc1ccc(cc1N)[S](O)(=O)=O,-1.1812163945
A-4442,(E)-N-(pyridin-2-ylmethylidene)hydroxylamine,VRGKDCRTYBCJTA-AATRIKPKSA-N,O=N\C=C/1NC=CC=C1,-1.0004518583
A-4444,"3a,4,7,7a-tetrahydro-1H-isoindole-1,3(2H)-dione",CIFFBTOJCKSRJY-UHFFFAOYSA-N,O=C1NC(=O)C2CC=CCC12,-1.0930914177
A-4445,"3,5,5-trimethylcyclohex-2-en-1-one",HJOVHMDZYOCNQW-UHFFFAOYSA-N,CC1=CC(=O)CC(C)(C)C1,-1.0613582209
A-4446,3-methylaniline,JJYPMNFTHPTTDI-UHFFFAOYSA-N,Cc1cccc(N)c1,-0.9508352475
A-4449,"1-{bis[4-(diethylamino)phenyl]methyl}naphthalene-2,7-disulfonic acid",BCYNJKQQXIODNZ-UHFFFAOYSA-N,CCN(CC)c1ccc(cc1)C(c2ccc(cc2)N(CC)CC)c3c4cc(ccc4ccc3[S](O)(=O)=O)[S](O)(=O)=O,-0.6984761494
A-4450,2-methylbutan-2-ol,MSXVEPNJUHWQHW-UHFFFAOYSA-N,CCC(C)(C)O,0.1266596907
A-4451,rhodium(3+) ion trinitrate,VXNYVYJABGOSBX-UHFFFAOYSA-N,[Rh+3].[O-][N+]([O-])=O.[O-][N+]([O-])=O.[O-][N+]([O-])=O,0.6074112619
A-4453,thiourea,UMGDCJDMYOKAJW-UHFFFAOYSA-N,NC(N)=S,0.188516266
A-4456,"5-(benzoylamino)-3-[[5-[[(5-chloro-2,6-difluoro-4-pyrimidinyl)amino]methyl]-1-sulpho-2-naphthyl]azo]-4-hydroxynaphthalene-2,7-disulphonic acid, lithium sodium salt",XBPKXTOUESGOQS-JVNZOHJBSA-K,[Li+].[Na+].[Na+].[O-][S](=O)(=O)c1cc(NC(=O)c2ccccc2)c3C(=O)C(=N/Nc4ccc5c(CNc6nc(F)nc(F)c6Cl)cccc5c4[S]([O-])(=O)=O)/C(=Cc3c1)[S]([O-])(=O)=O,-0.8900865081
A-4458,"benzene-1,3-diol",GHMLBKRAJCXXBS-UHFFFAOYSA-N,Oc1cccc(O)c1,1.0034883278
A-4459,1-hexadecylpyridinium chloride,YMKDRGPMQRFJGP-UHFFFAOYSA-M,[Cl-].CCCCCCCCCCCCCCCC[n+]1ccccc1,-0.4861495515
A-4461,"2-[(allyloxy)methyl]-2-methylbutane-1,1-diol",LZDXRPVSAKWYDH-UHFFFAOYSA-N,CCC(CO)(CO)COCC=C,-0.1997551773
A-4462,2-hydroxy-4-(methylsulfanyl)butanenitrile,VWWOJJANXYSACS-UHFFFAOYSA-N,CSCCC(O)C#N,-0.0765411499
A-4463,3-methylbut-2-enal,SEPQTYODOKLVSB-UHFFFAOYSA-N,CC(C)=CC=O,0.1165037469
A-4464,lithium(1+) ion hydroxide,WMFOQBRAJBCJND-UHFFFAOYSA-M,[Li+].[OH-],0.6621234357
A-4465,"3,5-dimethylhex-1-yn-3-ol",NECRQCBKTGZNMH-UHFFFAOYSA-N,CC(C)CC(C)(O)C#C,-1.0365979243
A-4466,cyclohex-3-ene-1-carbaldehyde,DCFDVJPDXYGCOK-UHFFFAOYSA-N,O=CC1CCC=CC1,-0.9775501681
A-4468,"1,3-diazinane-2,4,6-trione",HNYOPLTXPVRDBG-UHFFFAOYSA-N,O=C1CC(=O)NC(=O)N1,-1.0486616392
A-4470,6-chlorohexan-1-ol,JNTPTNNCGDAGEJ-UHFFFAOYSA-N,OCCCCCCCl,-1.0824421952
A-4471,suberonitrile,BTNXBLUGMAMSSH-UHFFFAOYSA-N,N#CCCCCCCC#N,-1.0810922867
A-4472,2-(4-methyl-5-oxo-4-propan-2-yl-1H-imidazol-2-yl)pyridine-3-carboxylic acid,CLQMBPJKHLGMQK-UHFFFAOYSA-N,CC(C)C1(C)N=C(NC1=O)c2ncccc2C(O)=O,-1.3640293861
A-4474,pent-2-enenitrile,ISBHMJZRKAFTGE-ARJAWSKDSA-N,CC\C=C/C#N,-0.8598992117
A-4477,"2-phenyl-4,5-dihydro-1H-imidazole",BKCCAYLNRIRKDJ-UHFFFAOYSA-O,C1C[NH+]=C(N1)c2ccccc2,-1.1265180752
A-4478,"tricyclo[2.2.2.2~1,4~]decane-2,5-diyldimethanol",OTLDLKLSNZMTTA-UHFFFAOYSA-N,OCC1CCC2C3CC(CC3CO)C12,-1.2515054899
A-4479,hydroxy(phenyl)acetic acid,IWYDHOAUDWTVEP-SSDOTTSWSA-N,O[C@@H](C(O)=O)c1ccccc1,-0.1416667622
A-4480,Alpha-Methylglucoside,HOVAGTYPODGVJG-UHFFFAOYSA-N,COC1OC(CO)C(O)C(O)C1O,0.7452125491
A-4483,"but-2-yne-1,4-diol; 2-(chloromethyl)oxirane",NHNWEVUXQTXHJI-UHFFFAOYSA-N,OCC#CCO.ClCC1CO1,0.7778715429
A-4484,3-methyloxolane,LJPCNSSTRWGCMZ-UHFFFAOYSA-N,CC1CCOC1,0.0901312493
A-4485,chromium(3+) ion trinitrate,PHFQLYPOURZARY-UHFFFAOYSA-N,[Cr+3].[O-][N+]([O-])=O.[O-][N+]([O-])=O.[O-][N+]([O-])=O,0.6456305496
A-4486,1-ethenylsulfanylethanol,XBSXOHLQFBHTPM-UHFFFAOYSA-N,CC(O)SC=C,0.0054931194
A-4487,"disodium 4-amino-3-[(E)-2-{4-[(E)-2-(2,4-diaminophenyl)diazen-1-yl]phenyl}diazen-1-yl]-5-hydroxy-6-[(E)-2-phenyldiazen-1-yl]naphthalene-2,7-disulfonate",YMIBJBNQAFRCFJ-DCWIDPHOSA-L,[Na+].[Na+].Nc1ccc(N=Nc2ccc(cc2)N=Nc3c(N)c4C(=O)C(=N/Nc5ccccc5)/C(=Cc4cc3[S]([O-])(=O)=O)[S]([O-])(=O)=O)c(N)c1,-0.827397585
A-4488,disodium 2-[carboxymethyl-[2-[carboxymethyl-(2-oxido-2-oxoethyl)amino]ethyl]amino]acetate,ZGTMUACCHSMWAC-UHFFFAOYSA-L,[Na+].[Na+].OC(=O)CN(CCN(CC(O)=O)CC([O-])=O)CC([O-])=O,-0.5054187441
A-4489,nitromethane,LYGJENNIWJXYER-UHFFFAOYSA-N,C[N+]([O-])=O,0.2335017655
A-4490,samarium(3+) ion trinitrate,YZDZYSPAJSPJQJ-UHFFFAOYSA-N,[Sm+3].[O-][N+]([O-])=O.[O-][N+]([O-])=O.[O-][N+]([O-])=O,0.4860173873
A-4492,3-methylpent-1-yn-3-ol,QXLPXWSKPNOQLE-UHFFFAOYSA-N,CCC(C)(O)C#C,0.0167319924
A-4493,hexanedihydrazide,IBVAQQYNSHJXBV-UHFFFAOYSA-N,NNC(=O)CCCCC(=O)NN,-0.2324579511
A-4495,"1,2-dimethoxyethane",XTHFKEDIFFGKHM-UHFFFAOYSA-N,COCCOC,1.0451691789
A-4496,"1,4-dioxane",RYHBNJHYFVUHQT-UHFFFAOYSA-N,C1COCCO1,1.0549945152
A-4498,1-methylpyrrolidin-2-one,SECXISVLQFMRJM-UHFFFAOYSA-N,CN1CCCC1=O,1.0037817508
A-4499,1-methylurea,XGEGHDBEHXKFPX-UHFFFAOYSA-N,CNC(N)=O,1.1302814392
A-4500,"2,2'-sulfanediyldiethanol",YODZTKMDCQEPHD-UHFFFAOYSA-N,OCCSCCO,0.9129678895
A-4501,"2,6-dimethylmorpholine",YASYEJJMZJALEJ-UHFFFAOYSA-N,O.OC(=O)CC(O)(CC(O)=O)C(O)=O,0.6774954055
A-4503,2-(2-hydroxyethoxy)ethan-1-ol,MTHSVFCYNBDYFN-UHFFFAOYSA-N,OCCOCCO,0.9741986662
A-4504,2-(2-oxoimidazolidin-1-yl)ethyl methacrylate,PFPUZMSQZJFLBK-UHFFFAOYSA-N,CC(=C)C(=O)OCCN1CCNC1=O,0.7028481463
A-4505,2-(dimethylamino)-2-methylpropan-1-ol,QVNXEWQCNPSJLG-UHFFFAOYSA-N,[H+].[Cl-].CN(C)C(C)(C)CO,0.8134589559
A-4507,2-[(2-aminoethyl)amino]ethan-1-ol,LHIJANUOQQMGNT-UHFFFAOYSA-N,NCCNCCO,0.9823282162
A-4508,2-[(2-hydroxyethyl)(methyl)amino]ethan-1-ol,CRVGTESFCCXCTH-UHFFFAOYSA-N,CN(CCO)CCO,0.9238549272
A-4509,2-[2-(2-hydroxyethoxy)ethoxy]ethan-1-ol,ZIBGPFATKBEMQZ-UHFFFAOYSA-N,OCCOCCOCCO,0.8234052513
A-4510,2-[bis(2-hydroxyethyl)amino]ethan-1-ol,GSEJCLTVZPLZKY-UHFFFAOYSA-N,OCCN(CCO)CCO,0.826260286
A-4511,2-chloroethan-1-ol,SZIFAVKTNFCBPC-UHFFFAOYSA-N,OCCCl,1.0941285967
A-4512,2-cyanoacetic acid,MLIREBYILWEBDM-UHFFFAOYSA-N,OC(=O)CC#N,1.0702644103
A-4513,2-hydroxyethyl prop-2-enoate,OMIGHNLMNHATMP-UHFFFAOYSA-N,OCCOC(=O)C=C,0.9351079333
A-4514,2-hydroxypropanenitrile,WOFDVDFSGLBFAC-UHFFFAOYSA-N,CC(O)C#N,1.1482586908
A-4515,2-methylbut-3-yn-2-ol,CEBKHWWANWSNTI-UHFFFAOYSA-N,CC(C)(O)C#C,1.0751110617
A-4516,2-methylpropan-2-amine,YBRBMKDOPFTVDT-UHFFFAOYSA-N,CC(C)(C)N,1.1358509819
A-4517,2-methylpropan-2-ol,DKGAVHZHDRPRBM-UHFFFAOYSA-N,CC(C)(C)O,1.1300470117
A-4518,2-methylpyridine,BSKHPKMHTQYZBB-UHFFFAOYSA-N,Cc1ccccn1,1.0309150604
A-4519,2-sulfanylethan-1-ol,DGVVWUTYPXICAM-UHFFFAOYSA-N,OCCS,1.1071488253
A-4520,3-(dimethylamino)propan-1-ol,PYSGFFTXMUWEOT-UHFFFAOYSA-N,CN(C)CCCO,0.9864676175
A-4521,"3-methyl-1-vinyl-2,3-dihydro-1H-imidazol-1-ium methyl sulfate",BZVFPIHTRLNAQA-UHFFFAOYSA-M,CO[S]([O-])(=O)=O.C[n+]1ccn(C=C)c1,0.6570840829
A-4522,4-hydroxybenzenesulfonic acid,FEPBITJSIHRMRT-UHFFFAOYSA-N,Oc1ccc(cc1)[S](O)(=O)=O,0.7590091939
A-4523,4-hydroxybutyl prop-2-enoate,NDWUBGAGUCISDV-UHFFFAOYSA-N,OCCCCOC(=O)C=C,0.8411251015
A-4524,"N,N-dimethylacetamide",FXHOOIRPVKKKFG-UHFFFAOYSA-N,CN(C)C(C)=O,1.0598721633
A-4525,N-(1-cyanoethyl)formamide,ONONIESHMTZAKB-UHFFFAOYSA-N,CC(NC=O)C#N,1.0083088579
A-4526,N-ethylethanamine,HPNMFZURTQLUMO-UHFFFAOYSA-N,CCNCC,1.1358509819
A-4527,N-methylacetamide,OHLUUHNLEMFGTQ-UHFFFAOYSA-N,CNC(C)=O,1.1361123296
A-4528,aziridine,NOWKCMXCCJGMRR-UHFFFAOYSA-N,C1CN1,1.3658352118
A-4529,"butane-1,2-diol",BMRWNKZVCUKKSR-UHFFFAOYSA-N,CCC(O)CO,1.0451691789
A-4530,"butane-2,3-diol",OWBTYPJTUOEWEK-ZXZARUISSA-N,C[C@@H](O)[C@H](C)O,1.0451691789
A-4531,cyclohexanamine,PAFZNILMFXTMIY-UHFFFAOYSA-N,NC1CCCCC1,1.0035890328
A-4532,cyclopropanamine,HTJDQJBWANPRPF-UHFFFAOYSA-N,NC1CC1,1.2433943163
A-4533,ethanedioyl dichloride,CTSLXHKWHWQRSH-UHFFFAOYSA-N,ClC(=O)C(Cl)=O,0.8964494063
A-4534,formamide,ZHNUHDYFZUAESO-UHFFFAOYSA-N,NC=O,1.3463919758
A-4535,methanesulfonic acid,AFVFQIVMOAPDHO-UHFFFAOYSA-N,C[S](O)(=O)=O,1.0172449791
A-4536,methyl hydroxymethoxyacetate,RNVVYVPDHMKDTL-UHFFFAOYSA-N,COC(=O)COCO,0.9204425284
A-4537,methylhydrazine,HDZGCSFEDULWCS-UHFFFAOYSA-N,CNN,1.3365535082
A-4538,oxan-2-one,OZJPLYNZGCXSJM-UHFFFAOYSA-N,O=C1CCCCO1,0.9994921725
A-4539,"pentane-1,2-diol",WCVRQHFDJLLWFE-UHFFFAOYSA-N,CCCC(O)CO,0.9823448956
A-4540,"pentane-1,5-diol",ALQSHHUCVQOPAS-UHFFFAOYSA-N,OCCCCCO,0.9823448956
A-4544,"propane-1,2-diamine",AOHJOMMDDJHIJH-UHFFFAOYSA-N,CC(N)CN,1.1300235759
A-4545,propanoic acid,XBDQKXXYIPTUBI-UHFFFAOYSA-N,CCC(O)=O,1.1303048889
A-4546,sodium trichloroacetate,SAQSTQBVENFSKT-UHFFFAOYSA-M,[Na+].[O-]C(=O)C(Cl)(Cl)Cl,0.7319628929
A-4547,"tetrasodium 5-({4-[bis(2-hydroxypropyl)amino]-6-[(4-sulfonatophenyl)amino]-1,3,5-triazin-2-yl}amino)-2-[(E)-2-[4-({4-[bis(2-hydroxypropyl)amino]-6-[(4-sulfonatophenyl)amino]-1,3,5-triazin-2-yl}amino)-2-sulfonatophenyl]ethenyl]benzene-1-sulfonate",NTHKAJBKFNFLHL-WPYDVODASA-J,[Na+].[Na+].[Na+].[Na+].CC(O)CN(CC(C)O)c1nc(Nc2ccc(cc2)[S]([O-])(=O)=O)nc(Nc3ccc(/C=C/c4ccc(Nc5nc(Nc6ccc(cc6)[S]([O-])(=O)=O)nc(n5)N(CC(C)O)CC(C)O)cc4[S]([O-])(=O)=O)c(c3)[S]([O-])(=O)=O)n1,-0.0867739928
A-4548,tributyl(methyl)azanium chloride,DXJLCRNXYNRGRA-UHFFFAOYSA-M,[I-].CCCC[N+](C)(CCCC)CCCC,0.4850619562
A-4549,trifluoroacetic acid,DTQVDTLACAAQTR-UHFFFAOYSA-N,OC(=O)C(F)(F)F,0.9430113455
A-4551,"1,2-oxathiolane 2,2-dioxide",FSSPGSAQUIYDCN-UHFFFAOYSA-N,O=[S]1(=O)CCCO1,-0.0868756938
A-4553,"disodium 2,2'-ethene-1,2-diylbis(5-aminobenzenesulfonate)",YAKFHPREDNNSFX-SEPHDYHBSA-L,[Na+].[Na+].Nc1ccc(\C=C\c2ccc(N)cc2[S]([O-])(=O)=O)c(c1)[S]([O-])(=O)=O,-0.6173904015
A-4556,yttrium(3+) acetate,JUWHRRAPBUAYTA-UHFFFAOYSA-K,[Y+3].CC([O-])=O.CC([O-])=O.CC([O-])=O,-0.4249436743
A-4557,3-aminobenzenesulfonic acid,ZAJAQTYSTDTMCU-UHFFFAOYSA-N,Nc1cccc(c1)[S](O)(=O)=O,-1.2051065795
A-4558,6'-methoxycinchonan-9-ol sulfate (salt),AKYHKWQPZHDOBW-UHFFFAOYSA-N,COc1ccc2nccc(C(O)C3CC4CCN3CC4C=C)c2c1.O[S](O)(=O)=O,-1.5924060415
A-4559,3-bromo-1-(3-chloropyridin-2-yl)-1H-pyrazole-5-carboxylic acid,FORBXGROTPOMEH-UHFFFAOYSA-N,OC(=O)c1cc(Br)nn1c2ncccc2Cl,-1.4489346424
A-4560,2-methoxy-2-methylbutane,HVZJRWJGKQPSFL-UHFFFAOYSA-N,CCC(C)(C)OC,-0.9795636765
A-4567,1-hydroxy-1-phenylacetone,ZBFFNPODXBJBPW-UHFFFAOYSA-N,CC(=O)C(O)c1ccccc1,-1.1766034244
A-4569,diammonium carbonate,PRKQVKDSMLBJBJ-UHFFFAOYSA-N,N.N.OC(O)=O,-0.9826601144
A-4570,trimethoxymethane,PYOKUURKVVELLB-UHFFFAOYSA-N,COC(OC)OC,-1.0258013338
A-4571,"3,3,3-tribromo-2,2-dimethylpropan-1-ol",QEJPOEGPNIVDMK-UHFFFAOYSA-N,OCC(CBr)(CBr)CBr,-2.2261095189
A-4572,"2-amino-4,5-dichlorobenzene-1-sulfonic acid",AKLDPNVZTZIVFA-UHFFFAOYSA-N,Nc1cc(Cl)c(Cl)cc1[S](O)(=O)=O,-2.1052106917
A-4576,2-phenyl-1H-imidazole,ZCUJYXPAKHMBAZ-UHFFFAOYSA-N,[nH]1ccnc1c2ccccc2,-1.8893830404
A-4577,strontium tartarate,YRUOECKPPZQJHI-UHFFFAOYSA-N,[Sr].OC(C(O)C(O)=O)C(O)=O,-2.1065271998
A-4579,2-[(2-nitrophenyl)amino]ethan-1-ol,LFOUYKNCQNVIGI-UHFFFAOYSA-N,OCCNc1ccccc1[N+]([O-])=O,-1.9933265855
A-4580,"5-methyl-1,2-oxazole-4-carboxylate",VQBXUKGMJCPBMF-UHFFFAOYSA-M,Cc1oncc1C([O-])=O,-1.0553611102
A-4582,"2,5,6-trimethylcyclohex-2-en-1-one",QAQCUBLNHBKTRM-UHFFFAOYSA-N,CC1CC=C(C)C(=O)C1C,-1.8852669619
A-4584,"2-ethylhexanoic acid, manganese salt",ODUSECXQXODQGI-UHFFFAOYSA-N,[Mn++].CCCCC(CC)C(O)=O,-2.0439121671
A-4587,"3-[(2-ethylhexyl)oxy]propane-1,2-diol",NCZPCONIKBICGS-UHFFFAOYSA-N,CCCCC(CC)COCC(O)CO,-2.0550171187
A-4588,3-amino-4-chlorobenzamide,QHMDKGRWJVOUFU-UHFFFAOYSA-N,NC(=O)c1ccc(Cl)c(N)c1,-1.976703976
A-4589,"N-(4-amino-3-methoxy-9,10-dioxo-9,10-dihydroanthracen-1-yl)benzenesulfonamide",ZUWHJJGOYZUNDW-UHFFFAOYSA-N,COc1cc(N[S](=O)(=O)c2ccccc2)c3C(=O)c4ccccc4C(=O)c3c1N,-2.3558504459
A-4591,"3-(oxiran-2-ylmethoxy)-N,N-bis(oxiran-2-ylmethyl)aniline",VAGOJLCWTUPBKD-UHFFFAOYSA-N,C1OC1COc2cccc(c2)N(CC3CO3)CC4CO4,-2.1925611892
A-4592,benzene,UHOVQNZJYSORNB-UHFFFAOYSA-N,c1ccccc1,-1.6423088751
A-4593,"2,2,6,6-tetramethyl-N-{6-[(2,2,6,6-tetramethylpiperidin-4-yl)amino]hexyl}piperidin-4-amine",UKJARPDLRWBRAX-UHFFFAOYSA-N,CC1(C)CC(CC(C)(C)N1)NCCCCCCNC2CC(C)(C)NC(C)(C)C2,-2.350745656
A-4597,"2,4,7,9-tetramethyldec-5-yne-4,7-diol",LXOFYPKXCSULTL-UHFFFAOYSA-N,CC(C)CC(C)(O)C#CC(C)(O)CC(C)C,-2.1243507639
A-4598,butyl prop-2-enoate,CQEYYJKEWSMYFG-UHFFFAOYSA-N,CCCCOC(=O)C=C,-1.8773408513
A-4600,4-(butoxymethyl)-2-methoxyphenol,VLDFMKOUUQYFGF-UHFFFAOYSA-N,CCCCOCc1ccc(O)c(OC)c1,-2.0948968063
A-4601,"2,5-dichloroanilinium chloride",ZALVJCYWUBQENP-UHFFFAOYSA-N,[H+].[Cl-].Nc1cc(Cl)ccc1Cl,-2.0750002801
A-4602,disodium (2R)-2-(dodecanoyloxy)propane-1-sulfonate (2S)-2-(dodecanoyloxy)propane-1-sulfonate,OIDZHGLUIRZPNM-XUZVGNKESA-L,[Na+].[Na+].CCCCCCCCCCCC(=O)O[C@@H](C)C[S]([O-])(=O)=O.CCCCCCCCCCCC(=O)O[C@H](C)C[S]([O-])(=O)=O,-2.6180468359
A-4604,"2-(2-amino-1,3-thiazol-4-yl)acetic acid",DYCLHZPOADTVKK-UHFFFAOYSA-N,Nc1scc(CC(O)=O)n1,-1.9816731181
A-4605,"1'-(phenylmethyl)-[1,4'-bipiperidine]-4'-carbonitrile",XXZATAXHOSMHKY-UHFFFAOYSA-P,N#CC1(CC[NH+](CC1)Cc2ccccc2)[NH+]3CCCCC3,-2.2459922106
A-4606,3-(diethylamino)phenol,WAVOOWVINKGEHS-UHFFFAOYSA-N,CCN(CC)c1cccc(O)c1,-2.0112787971
A-4607,"2,3-bis(nitrooxy)propyl nitrate",SNIOPGDIGTZGOP-UHFFFAOYSA-N,[O-][N+](=O)OCC(CO[N+]([O-])=O)O[N+]([O-])=O,-2.1520684654
A-4610,methyl 2-[(1E)-cyclopentylidene]acetate,ZDBCSZOFHPULAS-UHFFFAOYSA-N,COC(=O)C=C1CCCC1,-1.9425722692
A-4613,diphenyl methylphosphonate,HPUPGAFDTWIMBR-UHFFFAOYSA-N,C[P](=O)(Oc1ccccc1)Oc2ccccc2,-2.2017086736
A-4616,fluorobenzene,PYLWMHQQBFSUBP-UHFFFAOYSA-N,Fc1ccccc1,-1.7924097659
A-4617,sodium heptadecyl sulfate,HHURSJAUVYNJBT-UHFFFAOYSA-M,[Na+].CCCCCCCCCCCCCCCCCO[S]([O-])(=O)=O,-2.3669926669
A-4620,"2,2-difluoroethanamine",OVRWUZYZECPJOB-UHFFFAOYSA-N,NCC(F)F,0.5225303771
A-4623,"[(2R,3R,4S,5R,6R)-3,4,5,6-tetrakis(acetyloxy)oxan-2-yl]methyl acetate",LPTITAGPBXDDGR-UHFFFAOYSA-N,CC(=O)OCC1OC(OC(C)=O)C(OC(C)=O)C(OC(C)=O)C1OC(C)=O,-2.4153529113
A-4624,"2,2-dimethyl-3-phenylpropan-1-ol",VNGAHMPMLRTSLF-UHFFFAOYSA-N,CC(C)(CO)Cc1ccccc1,-2.0423138216
A-4625,2-phenyloxirane,AWMVMTVKBNGEAK-UHFFFAOYSA-N,C1OC1c2ccccc2,-1.9065411213
A-4627,"tert-butyl 2,2-dimethylpropaneperoxoate",OPQYOFWUFGEMRZ-UHFFFAOYSA-N,CC(C)(C)OOC(=O)C(C)(C)C,-2.067961594