ID,Name,InChIKey,SMILES,Solubility
A-5320,"2,6-dimethylmorpholine",HNVIQLPOGUDBSU-UHFFFAOYSA-N,CC1CNCC(C)O1,0.9386380084
A-5323,2-hydroxyethan-1-aminium 2-sulfanylacetate,XTJCJAPNPGGFED-UHFFFAOYSA-N,NCCO.OC(=O)CS,0.8147327303
A-5324,2-methylpentanedioic acid,AQYCMVICBNBXNA-UHFFFAOYSA-N,CC(CCC(O)=O)C(O)=O,0.8352249535
A-5325,2-oxobutanedioic acid,KHPXUQMNIQBQEV-UHFFFAOYSA-N,OC(=O)CC(=O)C(O)=O,0.8791925338
A-5326,"3-(2,3-dihydroxypropoxy)propane-1,2-diol",GPLRAVKSCUXZTP-UHFFFAOYSA-N,OCC(O)COCC(O)CO,0.7794395395
A-5327,"3-(2-chloroethyl)-2-methyl-4H,6H,7H,8H,9H-pyrido[1,2-a]pyrimidin-4-one hydrochloride",OPYLAGAQMHMBNY-UHFFFAOYSA-N,Cl.CC1=C(CCCl)C(=O)N2CCCCC2=N1,0.57976692
A-5328,"3-[3-(hydroxymethyl)-2,5-dioxoimidazolidin-4-yl]-1-[({[3-(hydroxymethyl)-2,5-dioxoimidazolidin-4-yl]carbamoyl}amino)methyl]urea",ZCTXEAQXZGPWFG-UHFFFAOYSA-N,OCN1C(NC(=O)NCNC(=O)NC2N(CO)C(=O)NC2=O)C(=O)NC1=O,0.4108359648
A-5329,"3-aminopropane-1,2-diol",KQIGMPWTAHJUMN-UHFFFAOYSA-N,NCC(O)CO,1.0404339534
A-5331,3-methyl-1H-pyrazole,XKVUYEYANWFIJX-UHFFFAOYSA-N,Cc1[nH]ncc1,1.0856251051
A-5332,3-oxobutanamide,GCPWJFKTWGFEHH-UHFFFAOYSA-N,CC(=O)CC(N)=O,0.9952273665
A-5333,"4-(hydroxymethyl)-1,3-dioxolan-2-one",JFMGYULNQJPJCY-UHFFFAOYSA-N,OCC1COC(=O)O1,0.9277942328
A-5334,4-acetylmorpholine,KYWXRBNOYGGPIZ-UHFFFAOYSA-N,CC(=O)N1CCOCC1,0.8888753261
A-5335,"Glycerol, ethoxylated",UCYLROVJSUACAD-UHFFFAOYSA-N,OCCOCC(COCCO)OCCO,0.6492617384
A-5336,"N,N,N-trimethylmethanaminium chloride",OKIZCWYLBDKLSU-UHFFFAOYSA-M,[Cl-].C[N+](C)(C)C,0.9601894459
A-5337,"N,N-dimethyl-3-oxobutanamide",YPEWWOUWRRQBAX-UHFFFAOYSA-N,CN(C)C(=O)CC(C)=O,0.8888753261
A-5338,N-[3-(dimethylamino)propyl]formamide,WFBDWTZOYPUBQZ-UHFFFAOYSA-N,CN(C)CCCNC=O,0.8854190372
A-5340,N-methylformamide,ATHHXGZTWNVVOU-UHFFFAOYSA-N,CNC=O,1.2286477338
A-5342,ammonium 2-sulfanylacetate,ZZTCCAPMZLDHFM-UHFFFAOYSA-N,[NH4+].[O-]C(=O)CS,0.96197626
A-5344,bis(2-[bis(2-hydroxyethyl)amino]ethan-1-ol); dodecanedioic acid,ONJCEWDYMQEPNH-UHFFFAOYSA-N,OCCN(CCO)CCO.OCCN(CCO)CCO.OC(=O)CCCCCCCCCCC(O)=O,0.2768038328
A-5345,bis(3-aminopropyl)(methyl)amine,KMBPCQSCMCEPMU-UHFFFAOYSA-N,CN(CCCN)CCCN,0.8378838589
A-5346,caesium(1+) ion chloride,AIYUHDOJVYHVIT-UHFFFAOYSA-M,[Cl-].[Cs+],0.7737662421
A-5347,caesium(1+) ion hydroxide,HUCVOHYBFXVBRW-UHFFFAOYSA-M,[OH-].[Cs+],0.8241636018
A-5348,"calcium bis(2,3-dihydroxy-3-[2-hydroxy-5-(hydroxymethyl)-1,3,2-dioxaborolan-4-yl]propanoate)",SSKRIDIHZLFJCG-UHFFFAOYSA-L,[Ca++].OCC1OB(O)OC1C(O)C(O)C([O-])=O.OCC2OB(O)OC2C(O)C(O)C([O-])=O,0.3169727848
A-5349,carbonic acid - 2-aminoethanol (1:2),KCNRUFVEYNBDQY-UHFFFAOYSA-N,NCCO.NCCO.OC(O)=O,0.7347292364
A-5350,dicaesium(1+) ion sulfate,FLJPGEWQYJVDPF-UHFFFAOYSA-L,[Cs+].[Cs+].[O-][S]([O-])(=O)=O,0.4414438192
A-5351,dipotassium adipate,WXRGTYANXHSUOX-UHFFFAOYSA-N,[K+].OC(=O)CCCCC(O)=O,0.7322652277
A-5352,disodium 3-[[ethyl[4-[[4-[(3-sulphonatophenyl)azo]-1-naphthyl]azo]phenyl]amino]methyl]benzenesulphonate,GYGVRMLIQVFLPE-UHFFFAOYSA-L,[Na+].[Na+].CCN(Cc1cccc(c1)[S]([O-])(=O)=O)c2ccc(cc2)N=Nc3ccc(N=Nc4cccc(c4)[S]([O-])(=O)=O)c5ccccc35,0.171543767
A-5353,disodium 6-amino-5-[(E)-2-(4-amino-2-sulfonatophenyl)diazen-1-yl]-4-hydroxynaphthalene-2-sulfonate,IFEUYSFKZJGJAD-UHFFFAOYSA-L,[Na+].[Na+].Nc1ccc(NNC2=C3C(=O)C=C(C=C3C=CC2=N)[S]([O-])(=O)=O)c(c1)[S]([O-])(=O)=O,0.316586399
A-5354,"ethane-1,2-diylbis(oxyethane-2,1-diyl) diacetate",OVOUKWFJRHALDD-UHFFFAOYSA-N,CC(=O)OCCOCCOCCOC(C)=O,0.6303241084
A-5355,ethyl 4-oxopiperidine-1-carboxylate,LUBGFMZTGFXIIN-UHFFFAOYSA-N,CCOC(=O)N1CCC(=O)CC1,0.7665063868
A-5356,ethyl(propyl)amine,XCVNDBIXFPGMIW-UHFFFAOYSA-O,CCC[NH2+]CC,1.0546594571
A-5357,indium(3+) ion trichloride,PSCMQHVBLHHWTO-UHFFFAOYSA-K,[Cl-].[Cl-].[Cl-].[In+3],0.6552600369
A-5359,nadide,BAWFJGJZGIEFAR-UHFFFAOYSA-N,NC(=O)c1ccc[n+](c1)C2OC(CO[P]([O-])(=O)O[P](O)(=O)OCC3OC(C(O)C3O)n4cnc5c(N)ncnc45)C(O)C2O,0.1782048938
A-5361,oxepan-2-one,PAPBSGBWRJIAAV-UHFFFAOYSA-N,O=C1CCCCCO1,0.9425469123
A-5362,oxolan-2-one,YEJRWHAVMIAJKC-UHFFFAOYSA-N,O=C1CCCO1,1.0650472922
A-5363,piperidine,NQRYJNQNLNOLGT-UHFFFAOYSA-N,C1CCNCC1,1.0698153477
A-5364,potassium cyanosulfanide,ZNNZYHKDIALBAK-UHFFFAOYSA-M,[K+].[S-]C#N,1.0124096986
A-5365,potassium dibenzyl phosphate,MTTPUPNRZRSDDM-UHFFFAOYSA-M,[K+].[O-][P](=O)(OCc1ccccc1)OCc2ccccc2,0.499854127
A-5367,prop-2-yn-1-ol,TVDSBUOJIPERQY-UHFFFAOYSA-N,OCC#C,1.2513159198
A-5368,"propane-1,3-diol",YPFDHNVEDLHUCE-UHFFFAOYSA-N,OCCCO,1.1186438786
A-5370,pyridin-3-ylmethanol,MVQVNTPHUGQQHK-UHFFFAOYSA-N,OCc1cccnc1,0.9620638041
A-5371,sodium 2-ethylhexanoate,VYPDUQYOLCLEGS-UHFFFAOYSA-M,[Na+].CCCCC(CC)C([O-])=O,0.779379433
A-5372,"sodium 3-[[4-amino-9,10-dihydro-3-[2-(2-methoxyethoxy)ethoxy]-9,10-dioxo-1-anthryl]amino]-2,4,6-trimethylbenzenesulphonate",JHAWQFNAZVTBHV-UHFFFAOYSA-M,[Na+].COCCOCCOc1cc(Nc2c(C)cc(C)c(c2C)[S]([O-])(=O)=O)c3C(=O)c4ccccc4C(=O)c3c1N,0.2391231024
A-5373,sodium 4-(ethoxycarbonyl)phenolate,QYNMSPKSYXPZHG-UHFFFAOYSA-M,[Na+].CCOC(=O)c1ccc([O-])cc1,0.7254773119
A-5374,"sodium O,O-diethyl dithiophosphate",ZKDDJTYSFCWVGS-UHFFFAOYSA-M,[Na+].CCO[P]([S-])(=S)OCC,0.6814775579
A-5375,sodium bis(2-methylpropyl) sulfanidyl(sulfanylidene)phosphonite,FOYPFIDVYRCZKA-UHFFFAOYSA-M,[Na+].CC(C)CO[P]([S-])(=S)OCC(C)C,0.5778568301
A-5376,sodium cyanosulfanide,VGTPCRGMBIAPIM-UHFFFAOYSA-M,[Na+].[S-]C#N,1.0911130427
A-5379,tert-butyl isobutyl ether,UPOMCDPCTBJJDA-UHFFFAOYSA-N,CC(C)COC(C)(C)C,0.8852856246
A-5380,tetramethylazanium 2-carboxybenzoate,KQTFRASJMFIJPC-UHFFFAOYSA-M,C[N+](C)(C)C.OC(=O)c1ccccc1C([O-])=O,0.6211099353
A-5381,tetramethylazanium hydroxide,WGTYBPLFGIVFAS-UHFFFAOYSA-M,[OH-].C[N+](C)(C)C,1.040224269
A-5382,trisodium 2-hydroxy-5-({5-methyl-4-[(4-nitro-2-sulfonatophenyl)diazenyl]-2-(3-sulfonatopropoxy)phenyl}diazenyl)benzoate,NVTFYQAUYQYBHO-WULDFMMKSA-K,[Na+].[Na+].[Na+].Cc1cc(N\N=C\2C=CC(=O)C(=C2)C([O-])=O)c(OCCC[S]([O-])(=O)=O)cc1N=Nc3ccc(cc3[S]([O-])(=O)=O)[N+]([O-])=O,0.1614506129
A-5383,zinc(2+) ion diphosphate,MFXMOUUKFMDYLM-UHFFFAOYSA-H,[Zn++].[O-][P]([O-])([O-])=O.[O-][P]([O-])([O-])=O,0.5928981548
A-5385,"2,2,6,6-tetramethylpiperidin-4-ol",VDVUCLWJZJHFAV-UHFFFAOYSA-N,CC1(C)CC(O)CC(C)(C)N1,-0.1966099864
A-5386,2-(piperazin-1-yl)ethan-1-amine,IMUDHTPIFIBORV-UHFFFAOYSA-N,NCCN1CCNCC1,-0.1112860429
A-5387,2-(propan-2-yloxy)ethan-1-ol,HCGFUIQPSOCUHI-UHFFFAOYSA-N,CC(C)OCCO,-0.0176551044
A-5388,3-[(2-hydroxyethyl)amino]propanamide,WRLAXUYIDLSRHV-UHFFFAOYSA-N,NC(=O)CCNCCO,-0.1211098882
A-5389,"4-{[4-(diethylamino)phenyl](phenyl)methylidene}-N,N-diethylcyclohexa-2,5-dien-1-iminium acetate",ZACIFCVOARIOBT-UHFFFAOYSA-M,CCN(CC)c1ccc(cc1)[C+](c2ccccc2)c3ccc(cc3)N(CC)CC.CC([O-])=O,-0.6479880176
A-5391,dimethyl methylphosphonate,VONWDASPFIQPDY-UHFFFAOYSA-N,CO[P](C)(=O)OC,-0.0936877841
A-5392,dimethyl phosphonate,YLFBFPXKTIQSSY-UHFFFAOYSA-N,CO[P+](=O)OC,-0.0375898257
A-5395,(cyclohexylmethyl)tris(dimethylamino)phosphanium; tetrafluoroboranuide,GOLIFAGXKWMYJQ-UHFFFAOYSA-N,CN(C)[P+](CC1CCCCC1)(N(C)C)N(C)C.F[B-](F)(F)F,-1.5071434524
A-5396,"1,1,1,2,2,4,5,5,5-nonafluoro-4-(trifluoromethyl)pentan-3-one",RMLFHPWPTXWZNJ-UHFFFAOYSA-N,FC(F)(F)C(F)(F)C(=O)C(F)(C(F)(F)F)C(F)(F)F,-1.4997434273
A-5397,dihydrogen tetrachloropalladiumdiuide,RPYSFYBAYJBKCR-UHFFFAOYSA-L,[Cl-].[Cl-].[Cl-].[Cl-].[Pd++].[H+].[H+],-1.3983706153
A-5398,palladium(2+) ion dinitrate,GPNDARIEYHPYAY-UHFFFAOYSA-N,[Pd++].[O-][N+]([O-])=O.[O-][N+]([O-])=O,-1.3625352504
A-5399,"tetrasodium 2-[(E)-2-{4-[(E)-2-{4-[(E)-2-[1-hydroxy-6-(phenylamino)-3-sulfonatonaphthalen-2-yl]diazen-1-yl]naphthalen-1-yl}diazen-1-yl]-6-sulfonatonaphthalen-1-yl}diazen-1-yl]benzene-1,4-disulfonate",WVAXYCNDKXJNGU-MNACUSLPSA-J,[Na+].[Na+].[Na+].[Na+].[O-][S](=O)(=O)c1ccc(c(c1)N=Nc2ccc(N=Nc3ccc(N\N=C4/C(=O)C(=Cc5cc(Nc6ccccc6)ccc45)[S]([O-])(=O)=O)c7ccccc37)c8cc(ccc28)[S]([O-])(=O)=O)[S]([O-])(=O)=O,-2.0236334836
A-5402,"N,N-bis(2-hydroxyethyl)undec-10-enamide",NGENVFQAIKEQNS-UHFFFAOYSA-N,OCCN(CCO)C(=O)CCCCCCCCC=C,-2.7615135856
A-5404,"1,5-dimethyl-1-vinylhex-4-en-1-yl formate",JZOCDHMHLGUPFI-UHFFFAOYSA-N,CC(C)=CCCC(C)(OC=O)C=C,-4.0405904263
A-5405,"N-(2-oxo-2,3-dihydropyrimidin-4-yl)benzamide",XBDUZBHKKUFFRH-UHFFFAOYSA-N,O=C1NC(=CC=N1)NC(=O)c2ccccc2,-5.1596802151
A-5406,"5-amino-2,4,6-triiodoisophthalic acid",JEZJSNULLBSYHV-UHFFFAOYSA-L,Nc1c(I)c(C([O-])=O)c(I)c(C([O-])=O)c1I,-1.569622787
A-5407,2-amino-2-methylpropan-1-ol; 2-dodecylbenzene-1-sulfonic acid,VXMUUMWPUFLERR-UHFFFAOYSA-N,CCCCCCCCCCCCc1ccccc1[S](O)(=O)=O.CC(C)(N)CO,0.2137915766
A-5408,(2Z)-4-{2-[2-(2-{[(2Z)-3-carboxyprop-2-enoyl]oxy}ethoxy)ethoxy]ethoxy}-4-oxobut-2-enoic acid,JWAZLOQEHBHDGM-CCAGOZQPSA-N,OC(=O)\C=C/C(=O)OCCOCCOCCOC(=O)\C=C/C(O)=O,0.1595325622
A-5410,"disodium 1,4-bis(4-phenylsulfonyloxybutan-2-ylimino)anthracene-9,10-diolate",LTFVYMXQNXRKJK-UHFFFAOYSA-L,[Na+].[Na+].CC(CCO[S](=O)(=O)c1ccccc1)[N-]c2ccc([N-]C(C)CCO[S](=O)(=O)c3ccccc3)c4C(=O)c5ccccc5C(=O)c24,-0.4376461112
A-5412,sodium; chromium(+3) cation; 3-oxido-4-(1-oxido-8-sulfonatonaphthalen-2-yl)diazenylnaphthalene-1-sulfonate,FZEAZTGOZSYASU-UHFFFAOYSA-J,[Na+].[Cr+3].[O-]c1cc(c2ccccc2c1N=Nc3ccc4cccc(c4c3[O-])[S]([O-])(=O)=O)[S]([O-])(=O)=O,-1.171951452
A-5413,"7-fluoro-1,3-dihydroindol-2-one",VMUIOEOYZHJLEZ-UHFFFAOYSA-N,Fc1cccc2CC(=O)Nc12,-2.2251369084
A-5414,"N-[3-(8-methylnonoxy)propyl]propane-1,3-diamine",LMVFSACRPDMFSQ-UHFFFAOYSA-N,CC(C)CCCCCCCOCCCNCCCN,-3.2048809276
A-5416,"disodium (6Z)-4-amino-3-[4-[[4-(2,4-diaminophenyl)diazenylphenyl]carbamoyl]phenyl]diazenyl-5-oxo-6-(phenylhydrazinylidene)naphthalene-2,7-disulfonate",GTPLMWARUUYSDH-OUXZIXCQSA-L,[Na+].[Na+].Nc1ccc(N=Nc2ccc(NC(=O)c3ccc(cc3)N=Nc4c(N)c5C(=O)C(=N/Nc6ccccc6)/C(=Cc5cc4[S]([O-])(=O)=O)[S]([O-])(=O)=O)cc2)c(N)c1,-1.3406827143
A-5417,dicaesium oxalate,VMQRILJWEHBRPV-UHFFFAOYSA-L,[Ce].[Ce].[O-]C(=O)C([O-])=O,-4.8732958362
A-5423,"Heptanoic acid, ester with 2-ethyl-2-(hydroxymethyl)-1,3-propanediol pentanoate",CIPBJDPIFXKOLJ-UHFFFAOYSA-N,CCCCCCC(=O)OCC(CC)(CO)COC(=O)CCCC,-5.982567027
A-5425,"2,2-dioctyl-1,3,2-oxathiastannolan-5-one",KEUUHXDTZRYITO-UHFFFAOYSA-L,CCCCCCCC[Sn]1(CCCCCCCC)OC(=O)CS1,-6.4456261549
A-5426,"diethyl cyclohexane-1,4-dicarboxylate",KRJHRNUTLDTSKY-UHFFFAOYSA-N,CCOC(=O)C1CCC(CC1)C(=O)OCC,-2.2512731137
A-5428,strontium titanium trioxide,VEALVRVVWBQVSL-UHFFFAOYSA-N,[Sr++].[O-][Ti]([O-])=O,-6.5279992996
A-5429,4-(3-Chloropropyl)morpholine,PIAZYBLGBSMNLX-UHFFFAOYSA-N,ClCCCN1CCOCC1,0.786089298
A-5431,yttrium trinitrate,BXJPTTGFESFXJU-UHFFFAOYSA-N,[Y+3].[O-][N+]([O-])=O.[O-][N+]([O-])=O.[O-][N+]([O-])=O,0.5453241375
A-5432,"3-(3-cyano-6-hydroxy-4-methyl-2-oxo-1,2-dihydropyridin-1-yl)propanoic acid",WONCXRLGPXEDCT-UHFFFAOYSA-N,CC1=C(C#N)C(=O)N(CCC(O)=O)C(=C1)O,-1.4436540676
A-5433,"3-(3-carbamoyl-6-hydroxy-4-methyl-2-oxo-1,2-dihydropyridin-1-yl)propanoic acid",OQWXGSNZZDHKAP-UHFFFAOYSA-N,CC1=C(C(N)=O)C(=O)N(CCC(O)=O)C(=C1)O,-1.6024488726
A-5437,(2S)-2-amino-6-octanamidohexanoic acid,DUZODDYGMSCYMJ-LBPRGKRZSA-N,CCCCCCCC(=O)NCCCC[C@H](N)C(O)=O,0.0575708237
A-5439,tetrasodium phosphonato phosphate,FQENQNTWSFEDLI-UHFFFAOYSA-J,[Na+].[Na+].[Na+].[Na+].[O-][P]([O-])(=O)O[P]([O-])([O-])=O,-0.1942710493
A-5440,trisodium 2-(oxido-oxidooxyphosphoryl)acetate,PLVJYSAWBBKJQL-UHFFFAOYSA-K,[Na+].[Na+].[Na+].[O-]O[P]([O-])(=O)CC([O-])=O,0.301076949
A-5442,Terbinafine hydrochloride,BWMISRWJRUSYEX-SZKNIZGXSA-N,[H+].[Cl-].CN(C\C=C\C#CC(C)(C)C)Cc1cccc2ccccc12,-1.7198600749
A-5443,"potassium sodium 2-{[4-({4-[(4-amino-9,10-dioxo-3-sulfonato-9,10-dihydroanthracen-1-yl)amino]cyclohexyl}amino)-6-fluoro-1,3,5-triazin-2-yl]amino}benzene-1,4-disulfonate",GAMLGDIDSXFYEU-UHFFFAOYSA-K,[Na+].[K+].Nc1c(cc(NC2CCC(CC2)Nc3nc(F)nc(Nc4cc(ccc4[S]([O-])(=O)=O)[S]([O-])(=O)=O)n3)c5C(=O)c6ccccc6C(=O)c15)[S]([O-])(=O)=O,-0.7569465698
A-5444,(2-{[(2E)-2-cyano-2-{[4-(diethylamino)phenyl]methylidene}acetyl]oxy}ethyl)(3-{[(2E)-2-cyano-2-{[4-(diethylamino)phenyl]methylidene}acetyl]oxy}propyl)dimethylazanium chloride,DLNMMVNCTSAPOW-LMKNCCGPSA-M,[Cl-].CCN(CC)c1ccc(cc1)/C=C(C#N)/C(=O)OCCC[N+](C)(C)CCOC(=O)\C(=C\c2ccc(cc2)N(CC)CC)C#N,-0.8036189217
A-5445,"1,1,1-trifluoro-N-(trifluoromethylsulfonyl)methanesulfonamide",ZXMGHDIOOHOAAE-UHFFFAOYSA-N,FC(F)(F)[S](=O)(=O)N[S](=O)(=O)C(F)(F)F,0.4541441757
A-5446,sodium; 5-chloro-3-[3-methyl-5-oxido-1-(3-sulfonatophenyl)pyrazol-4-yl]diazenyl-2-oxidobenzenesulfonate; chromium(+3) cation,HQBKGOCRCWUTTD-UHFFFAOYSA-J,[Na+].[Cr+3].Cc1nn(c([O-])c1N=Nc2cc(Cl)cc(c2[O-])[S]([O-])(=O)=O)c3cccc(c3)[S]([O-])(=O)=O,-1.1331674849
A-5450,2-[(Z)-octadec-9-enoxy]ethanol,KWVPFECTOKLOBL-KTKRTIGZSA-N,CCCCCCCC\C=C/CCCCCCCCOCCO,-2.4949028287
A-5451,3-[3-(benzotriazol-2-yl)-5-tert-butyl-4-hydroxyphenyl]propanoic acid,OYGYNUPKLMDVHM-UHFFFAOYSA-N,CC(C)(C)c1cc(CCC(O)=O)cc(n2nc3ccccc3n2)c1O,-5.53070544
A-5456,"2,3-dihydroxypropyl 12-hydroxyoctadecanoate",RVNAQNUKCZKJCP-UHFFFAOYSA-N,CCCCCCC(O)CCCCCCCCCCC(=O)OCC(O)CO,-3.3974324562
A-5457,"methyl 2-[(4aS)-3,6-bis(diethylamino)-2,7-dimethyl-4aH-xanthen-9-yl]benzoate",CILQGDJCXHLODI-NDEPHWFRSA-N,CCN(CC)C1=C[C@@H]2Oc3cc(N(CC)CC)c(C)cc3C(=C2C=C1C)c4ccccc4C(=O)OC,-7.6872220822
A-5458,"1,4-diethyl 2-{[4-({4-[(1,4-diethoxy-1,4-dioxobutan-2-yl)amino]cyclohexyl}methyl)cyclohexyl]amino}butanedioate",VLJCQQPKCXJKKM-UHFFFAOYSA-N,CCOC(=O)CC(NC1CCC(CC1)CC2CCC(CC2)NC(CC(=O)OCC)C(=O)OCC)C(=O)OCC,-3.7440777388
A-5459,"2,2,4,4,6,8,8-heptamethylnonane",VCLJODPNBNEBKW-UHFFFAOYSA-N,CC(CC(C)(C)C)CC(C)(C)CC(C)(C)C,-3.3549684893
A-5462,N-benzyl-2-acetamido-3-methoxypropanamide,VPPJLAIAVCUEMN-UHFFFAOYSA-N,COCC(NC(C)=O)C(=O)NCc1ccccc1,-3.3984573794
A-5464,1-(1-butoxypropan-2-yloxy)propan-2-ol,CUVLMZNMSPJDON-UHFFFAOYSA-N,CCCCOCC(C)OCC(C)O,-0.6530596225
A-5465,Nonadecanoic acid,ISYWECDDZWTKFF-UHFFFAOYSA-N,CCCCCCCCCCCCCCCCCCC(O)=O,-3.775990335
A-5468,2-Ethoxy-2-methylbutane,KFRVYYGHSPLXSZ-UHFFFAOYSA-N,CCOC(C)(C)CC,-1.4719350107
A-5469,2-methyl-4-phenylpentan-1-ol,SXGYZCMGVZKIPJ-UHFFFAOYSA-N,CC(CO)CC(C)c1ccccc1,-2.3469160768
A-5473,"1-amino-4-hydroxy-2-phenoxy-9,10-dihydroanthracene-9,10-dione",MHXFWEJMQVIWDH-UHFFFAOYSA-N,Nc1c(Oc2ccccc2)cc(O)c3C(=O)c4ccccc4C(=O)c13,-4.2192268325
A-5474,Indanthren Rubine rs,HMVVJYXWTGGFDR-UHFFFAOYSA-N,CCn1nc2cc(cc3C(=O)c4ccccc4c1c23)c5cc6nn(CC)c7c8ccccc8C(=O)c(c5)c67,-4.3931837232
A-5475,"16,23-dihydronaphth[2',3':6,7]indolo[2,3-c]dinaphtho[2,3-a:2'3'-i]carbazole-5,10,15,17,22,24-hexone",DCYIADGZPJOOFN-UHFFFAOYSA-N,O=C1c2ccccc2C(=O)c3c4[nH]c5c6C(=O)c7ccccc7C(=O)c6c8[nH]c9c(ccc%10C(=O)c%11ccccc%11C(=O)c9%10)c8c5c4ccc13,-4.5096151077
A-5477,16-Nitroviolanthrone,LNNHYUOWYOSHPH-UHFFFAOYSA-N,[O-][N+](=O)c1cc2c3ccccc3C(=O)c4ccc5c6ccc7C(=O)c8ccccc8c9ccc(c6c79)c1c5c24,-4.3992383437
A-5478,"4-[(4-ethoxyphenyl)amino]-N,N-dimethyl-3-nitrobenzene-1-sulfonamide",SIFKXZAVMBSRMB-UHFFFAOYSA-N,CCOc1ccc(Nc2ccc(cc2[N+]([O-])=O)[S](=O)(=O)N(C)C)cc1,-4.2617516212
A-5479,Calcoloid Olive r,OXEFCDNMUKTKDV-UHFFFAOYSA-N,O=C(Nc1cc2c([nH]c3c2cc(NC(=O)c4ccccc4)c5C(=O)c6ccccc6C(=O)c35)c7C(=O)c8ccccc8C(=O)c17)c9ccccc9,-4.5222231174
A-5480,"dibromopyranthrene-8,16-dione",HJICBVMRKHYRDH-UHFFFAOYSA-N,Brc1ccc2c3cc4ccc5C(=O)c6ccccc6c7cc8ccc(C(=O)c2c1Br)c3c8c4c57,-4.4504277175
A-5483,1-[2-dimethylamino-1-(4-methoxyphenyl)ethyl]cyclohexan-1-ol,PNVNVHUZROJLTJ-UHFFFAOYSA-N,COc1ccc(cc1)C(CN(C)C)C2(O)CCCCC2,0.2567187446
A-5485,Acid Black 52,YCNSFOJOGIRLCD-XGVRSJHNSA-L,[Na+].[Na+].[Cr].[Cr].Oc1ccc2ccccc2c1N\N=C/3C(=O)C=C(c4cc(ccc34)[N+]([O-])=O)[S](O)(=O)=O.Oc5ccc6ccccc6c5N\N=C/7C(=O)C=C(c8cc(ccc78)[N+]([O-])=O)[S]([O-])(=O)=O.Oc9ccc%10ccccc%10c9N\N=C/%11C(=O)C=C(c%12cc(ccc%11%12)[N+]([O-])=O)[S]([O-])(=O)=O,-5.1661846252
A-5487,dodecyl prop-2-enoate,PBOSTUDLECTMNL-UHFFFAOYSA-N,CCCCCCCCCCCCOC(=O)C=C,-4.3809109776
A-5488,pentaaluminium triyttrium dodecaoxide,JNDMLEXHDPKVFC-UHFFFAOYSA-N,[O--].[O--].[O--].[Al+3].[Y+3],-4.2145392055
A-5489,rhodium(3+) ion triiodide,KXAHUXSHRWNTOD-UHFFFAOYSA-K,[Rh+3].[I-].[I-].[I-],-4.6845024567
A-5490,tetradecyl prop-2-enoate,XZHNPVKXBNDGJD-UHFFFAOYSA-N,CCCCCCCCCCCCCCOC(=O)C=C,-4.428848848
A-5491,"3-({3-carboxy-1,4,5,6,7,7-hexachlorobicyclo[2.2.1]hept-5-ene-2-carbonyloxy}carbonyl)-1,4,5,6,7,7-hexachlorobicyclo[2.2.1]hept-5-ene-2-carboxylic acid",FLBJFXNAEMSXGL-UHFFFAOYSA-N,ClC1=C(Cl)C2(Cl)C3C(C(=O)OC3=O)C1(Cl)C2(Cl)Cl,-5.1712348525
A-5493,"2-{[2-(acetyloxy)ethyl]({4-[(E)-2-(2-chloro-4,6-dinitrophenyl)diazen-1-yl]-5-acetamido-2-methoxyphenyl})amino}ethyl acetate",VRTQJBZLCYJJCI-UHFFFAOYSA-N,COc1cc(N=Nc2c(Cl)cc(cc2[N+]([O-])=O)[N+]([O-])=O)c(NC(C)=O)cc1N(CCOC(C)=O)CCOC(C)=O,-5.4630997896
A-5495,methyl 5-amino-4-cyano-3-methylthiophene-2-carboxylate,PDDIXJQTRLVRCG-UHFFFAOYSA-N,COC(=O)c1sc(N)c(C#N)c1C,-4.9917376214
A-5496,dimethyl octadecylphosphonate,FPYLHOQPWCQAIJ-UHFFFAOYSA-N,CCCCCCCCCCCCCCCCCC[P](=O)(OC)OC,-5.5299661631
A-5497,(9Z)-N-(2-hydroxypropyl)octadec-9-enamide,UDZAXLGLNUMCRX-KHPPLWFESA-N,CCCCCCCC\C=C/CCCCCCCC(=O)NCC(C)O,-5.5309216408
A-5498,aluminium(3+) ion bis(hydrogen phosphonatooxy)phosphinate,QPLNUHHRGZVCLQ-UHFFFAOYSA-I,[Al+3].[O-][P]([O-])(=O)O[P]([O-])(=O)O[P]([O-])([O-])=O,-5.6688423383
A-5499,"2-hydroxy-1-{1-[4-(2-hydroxy-2-methylpropanoyl)phenyl]-1,3,3-trimethyl-2,3-dihydro-1H-inden-5-yl}-2-methylpropan-1-one",MRBZZNMTRWISRD-UHFFFAOYSA-N,CC(C)(O)C(=O)c1ccc(cc1)C2(C)CC(C)(C)c3cc(ccc23)C(=O)C(C)(C)O,-5.9372904598
A-5500,"2-hydroxy-1-{3-[4-(2-hydroxy-2-methylpropanoyl)phenyl]-1,1,3-trimethyl-2,3-dihydro-1H-inden-5-yl}-2-methylpropan-1-one",AVZGRVCEWBPUNN-UHFFFAOYSA-N,CC(C)(O)C(=O)c1ccc(cc1)C2(C)CC(C)(C)c3ccc(cc23)C(=O)C(C)(C)O,-5.9638494884
A-5505,"(6E)-7,11-dimethyl-3-methylidenedodeca-1,6,10-triene",JSNRRGGBADWTMC-NTCAYCPXSA-N,CC(C)=CCC\C(C)=C\CCC(=C)C=C,-6.3103895185
A-5506,"3-{[bis(2,6-dimethylphenoxy)phosphoryl]oxy}phenyl bis(2,6-dimethylphenyl) phosphate",YOLFSLXHLNWPKG-UHFFFAOYSA-N,Cc1cccc(C)c1O[P](=O)(Oc2cccc(O[P](=O)(Oc3c(C)cccc3C)Oc4c(C)cccc4C)c2)Oc5c(C)cccc5C,-6.8367531336
A-5507,4-(4-butylcyclohexyl)cyclohexan-1-one,LDUYZTOYURUHIX-UHFFFAOYSA-N,CCCCC1CCC(CC1)C2CCC(=O)CC2,-6.3736456351
A-5509,tetraoctylstannane,JTGNPNLBCGBCMP-UHFFFAOYSA-N,CCCCCCCC[Sn](CCCCCCCC)(CCCCCCCC)CCCCCCCC,-6.7570975386
A-5510,tris(triphenylphosphine)rhodium (I) chloride,TZKOFQQLYGJWKC-UHFFFAOYSA-N,[Cl].[Rh].c1ccc(cc1)P(c2ccccc2)c3ccccc3.c4ccc(cc4)P(c5ccccc5)c6ccccc6.c7ccc(cc7)P(c8ccccc8)c9ccccc9,-7.0120095436
A-5511,"11-methyldodecyl 2-{[(3,5-di-tert-butyl-4-hydroxyphenyl)methyl]sulfanyl}acetate",GBBDRAQIJBCOBP-UHFFFAOYSA-N,CC(C)CCCCCCCCCCOC(=O)CSCc1cc(c(O)c(c1)C(C)(C)C)C(C)(C)C,-6.7895895249
A-5512,dichlorobis(triphenylphosphine)palladium,YNHIGQDRGKUECZ-UHFFFAOYSA-L,[Cl-].[Cl-].[Pd++].c1ccc(cc1)P(c2ccccc2)c3ccccc3.c4ccc(cc4)P(c5ccccc5)c6ccccc6,-7.0267374942
A-5513,4-[9-(4-amino-3-chlorophenyl)-9H-fluoren-9-yl]-2-chloroaniline,CIZUMWWHWPJAAK-UHFFFAOYSA-N,Nc1ccc(cc1Cl)C2(c3ccc(N)c(Cl)c3)c4ccccc4c5ccccc25,-6.9044856274
A-5515,Solvent red 135,UBZVRROHBDDCQY-UHFFFAOYSA-N,Clc1c(Cl)c(Cl)c2C3=Nc4cccc5cccc(N3C(=O)c2c1Cl)c45,-7.1336144776
A-5516,3-hydroxy-2-(3-hydroxyquinolin-2-yl)-1H-inden-1-one,AAQBHIGARPQBLO-UHFFFAOYSA-N,OC1=Cc2ccccc2NC1=C3C(=O)c4ccccc4C3=O,-7.0463600735
A-5519,"1,3,5-tris(4-tert-butyl-3-hydroxy-2,6-dimethylbenzyl)-1,3,5-triazinane-2,4,6-trione",XYXJKPCGSGVSBO-UHFFFAOYSA-N,Cc1cc(c(O)c(C)c1CN2C(=O)N(Cc3c(C)cc(c(O)c3C)C(C)(C)C)C(=O)N(Cc4c(C)cc(c(O)c4C)C(C)(C)C)C2=O)C(C)(C)C,-7.5440264742
A-5520,"1,4-bis[(2,6-diethyl-4-methylphenyl)amino]-9,10-dihydroanthracene-9,10-dione",IBABXJRXGSAJLQ-UHFFFAOYSA-N,CCc1cc(C)cc(CC)c1Nc2ccc(Nc3c(CC)cc(C)cc3CC)c4C(=O)c5ccccc5C(=O)c24,-7.423828912
A-5521,"1,4-bis[(2-ethyl-6-methylphenyl)amino]-9,10-dihydroanthracene-9,10-dione",NPJJGMRERPXCSE-UHFFFAOYSA-N,CCc1cccc(C)c1Nc2ccc(Nc3c(C)cccc3CC)c4C(=O)c5ccccc5C(=O)c24,-7.3753013985
A-5522,"14h-Benz[4,5]isoquino[2,1-a]perimidin-14-one",NIDFGXDXQKPZMA-UHFFFAOYSA-N,O=C1N2c3cccc4cccc(N=C2c5cccc6cccc1c56)c34,-7.2045960883
A-5523,"2-methyl-4,6-bis[(octylsulfanyl)methyl]phenol",GAODDBNJCKQQDY-UHFFFAOYSA-N,CCCCCCCCSCc1cc(C)c(O)c(CSCCCCCCCC)c1,-7.3271136165
A-5524,"4-{[bis(octylsulfanyl)-1,3,5-triazin-2-yl]amino}-2,6-di-tert-butylphenol",QRLSTWVLSWCGBT-UHFFFAOYSA-N,CCCCCCCCSc1nc(Nc2cc(c(O)c(c2)C(C)(C)C)C(C)(C)C)nc(SCCCCCCCC)n1,-7.4690646531