ID,Name,InChIKey,SMILES,Solubility
A-1617,"2,3,4,5,6,7-hexahydro-1H-isoindole-1,3-dione",AFJWMGOTLUUGHF-UHFFFAOYSA-N,O=C1NC(=O)C2=C1CCCC2,-1.974517726
A-1619,2-phenylethyl 2-methylpropanoate,JDQVBGQWADMTAM-UHFFFAOYSA-N,CC(C)C(=O)OCCc1ccccc1,-3.0797644375
A-1620,"4-(2,6,6-trimethylcyclohex-1-en-1-yl)but-3-en-2-one",PSQYTAPXSHCGMF-BQYQJAHWSA-N,CC(=O)/C=C/C1=C(C)CCCC1(C)C,-3.0798638184
A-1623,"N,N-dimethyldecan-1-amine",YWWNNLPSZSEZNZ-UHFFFAOYSA-N,CCCCCCCCCCN(C)C,-4.0452878346
A-1624,ethyl 3-[(diisopropoxyphosphorothioyl)sulfanyl]propanoate,PMWHATAFABINDH-UHFFFAOYSA-N,CCOC(=O)CCS[P](=S)(OC(C)C)OC(C)C,-4.2747784981
A-1626,4-Tricyclodecylidene butanal,WFEISWUNAJPLRX-ONNFQVAWSA-N,O=CCC\C=C1/CC2CC1C3CCCC23,-4.0901879127
A-1627,2-methyloctane-2-thiol,MPBLPZLNKKGCGP-UHFFFAOYSA-N,CCCCCCC(C)(C)S,-3.9901601094
A-1628,"3,7-dimethyloct-6-en-1-yl formate",DZNVIZQPWLDQHI-UHFFFAOYSA-N,CC(CCOC=O)CCC=C(C)C,-4.0559608323
A-1629,O-(4-bromo-2-chlorophenyl) O-ethyl S-propyl thiophosphate,QYMMJNLHFKGANY-UHFFFAOYSA-N,CCCS[P](=O)(OCC)Oc1ccc(Br)cc1Cl,-4.365622838
A-1630,zinc bis(dinonylnaphthalenesulphonate),COGHWIKGZJHSAG-UHFFFAOYSA-L,[Zn++].CCCCCCCCCc1cc2ccccc2c(c1CCCCCCCCC)[S]([O-])(=O)=O.CCCCCCCCCc3cc4ccccc4c(c3CCCCCCCCC)[S]([O-])(=O)=O,-4.7884242194
A-1634,2-methyldecanal,LBICMZLDYMBIGA-UHFFFAOYSA-N,CCCCCCCCC(C)C=O,-4.0270844645
A-1635,"dimethyl 2,5-dioxocyclohexane-1,4-dicarboxylate",MHKKFFHWMKEBDW-UHFFFAOYSA-N,COC(=O)C1CC(=O)C(CC1=O)C(=O)OC,-4.1541956574
A-1636,2-(chloromethyl)oxirane; 4-[2-(4-hydroxyphenyl)propan-2-yl]phenol; 2-methyloxirane,ZAZDSNWVKSFFLI-UHFFFAOYSA-N,CC1CO1.CC(C)(c2ccc(O)cc2)c3ccc(O)cc3.ClCC4CO4,-4.3744000378
A-1637,zinc(2+) ion selenite,PEUPCBAALXHYHP-UHFFFAOYSA-L,[Zn++].[O-][Se]([O-])=O,-4.0799654344
A-1638,"3-methyl-N-nitro-3,6-dihydro-2H-1,3,5-oxadiazin-4-amine",GAYLOVDFGKQKCJ-UHFFFAOYSA-N,CN1COCN=C1N[N+]([O-])=O,-1.0022923277
A-1639,"(2R,3R,4S,5R)-2-(6-hydroxy-9H-purin-9-yl)-5-(hydroxymethyl)oxolane-3,4-diol",UGQMRVRMYYASKQ-UHFFFAOYSA-N,OCC1OC(C(O)C1O)n2cnc3C(=O)N=CNc23,-1.2298486435
A-1640,"2,3,6-trimethylphenol",QQOMQLYQAXGHSU-UHFFFAOYSA-N,Cc1ccc(C)c(O)c1C,-1.9355008883
A-1643,"1,3-xylene",IVSZLXZYQVIEFR-UHFFFAOYSA-N,Cc1cccc(C)c1,-2.8328690378
A-1646,2-octanamidoacetic acid,SAVLIIGUQOSOEP-UHFFFAOYSA-N,CCCCCCCC(=O)NCC(O)=O,-2.1115375925
A-1647,"(1,5,5-trimethyl-6-bicyclo[2.2.1]heptanyl) acetate",JUWUWIGZUVEFQB-UHFFFAOYSA-N,CC(=O)OC1C(C)(C)C2CCC1(C)C2,-3.8745968837
A-1648,Dioxosilane,VYPSYNLAJGMNEJ-UHFFFAOYSA-N,O=[Si]=O,-3.6026675784
A-1650,(2S)-2-{[(benzyloxy)carbonyl]amino}-2-cyclohexylacetic acid,CUSYTUPJAYLNFQ-AWEZNQCLSA-N,OC(=O)[C@@H](NC(=O)OCc1ccccc1)C2CCCCC2,-3.2854336032
A-1651,"(4E)-3-methyl-5-(2,6,6-trimethylcyclohex-1-en-1-yl)penta-1,4-dien-3-ol",PZGYHDPZANRCSM-PKNBQFBNSA-N,CC1=C(/C=C/C(C)(O)C=C)C(C)(C)CCC1,-3.164147933
A-1652,methyl oct-2-ynoate,FRLZQXRXIKQFNS-UHFFFAOYSA-N,CCCCCC#CC(=O)OC,-3.0091327736
A-1654,manganese(2+) ion diphosphinate,FLFJVPPJGJSHMF-UHFFFAOYSA-L,[Mn++].[O-]P=O.[O-]P=O,-0.0813040923
A-1662,"1,2-dimethyl-3-nitrobenzene",FVHAWXWFPBPFOS-UHFFFAOYSA-N,Cc1cccc(c1C)[N+]([O-])=O,-3.0033599893
A-1665,phenyl 2-hydroxybenzoate,ZQBAKBUEJOMQEX-UHFFFAOYSA-N,Oc1ccccc1C(=O)Oc2ccccc2,-3.1547687559
A-1668,"3,7-dimethyloct-6-en-1-yl acetate",JOZKFWLRHCDGJA-UHFFFAOYSA-N,CC(CCOC(C)=O)CCC=C(C)C,-4.0959387302
A-1669,"3,3,4,4,5,5,6,6,6-nonafluorohex-1-ene",GVEUEBXMTMZVSD-UHFFFAOYSA-N,FC(F)(F)C(F)(F)C(F)(F)C(F)(F)C=C,-4.1979376007
A-1670,2-phenylethyl 2-phenylacetate,ZOZIRNMDEZKZHM-UHFFFAOYSA-N,O=C(Cc1ccccc1)OCCc2ccccc2,-4.1887477927
A-1672,"2-({2,2-bis[(prop-2-enoyloxy)methyl]butoxy}methyl)-2-[(prop-2-enoyloxy)methyl]butyl prop-2-enoate",XRMBQHTWUBGQDN-UHFFFAOYSA-N,CCC(COCC(CC)(COC(=O)C=C)COC(=O)C=C)(COC(=O)C=C)COC(=O)C=C,-4.4927855243
A-1674,"(2,4,6-trioxo-1,3,5-triazine-1,3,5(2H,4H,6H)-triyl)tri-2,1-ethanediyl triacrylate",YIJYFLXQHDOQGW-UHFFFAOYSA-N,C=CC(=O)OCCN1C(=O)N(CCOC(=O)C=C)C(=O)N(CCOC(=O)C=C)C1=O,-2.4514194624
A-1676,"Octanoic acid, ester with 1,2,3-propanetriol",SQABAALQCGKFFO-UHFFFAOYSA-N,CCCCCCCC(O)=O.OCC(O)CO,-3.2000007811
A-1677,4-isopropylbenzonitrile,YFDJCWXBKWRDPW-UHFFFAOYSA-N,CC(C)c1ccc(cc1)C#N,-2.9887953027
A-1678,"1,2-bis(prop-2-en-1-yl) benzene-1,2-dicarboxylate",QUDWYFHPNIMBFC-UHFFFAOYSA-N,C=CCOC(=O)c1ccccc1C(=O)OCC=C,-3.2211356868
A-1679,"1,3-diphenylguanidine",OWRCNXZUPFZXOS-UHFFFAOYSA-N,NC(Nc1ccccc1)=Nc2ccccc2,-2.1575163863
A-1680,2-methylpropane-2-thiol,WMXCDAVJEZZYLT-UHFFFAOYSA-N,CC(C)(C)S,-1.7878458675
A-1685,"3,3,5-trimethylcyclohexanol",BRRVXFOKWJKTGG-UHFFFAOYSA-N,CC1CC(O)CC(C)(C)C1,-1.9916598479
A-1686,"N,N-dimethylaniline",JLTDJTHDQAWBAV-UHFFFAOYSA-N,CN(C)c1ccccc1,-1.9220736974
A-1687,"1-chloro-2,5-dimethoxy-4-nitrobenzene",ORLPGMKKCAEWOW-UHFFFAOYSA-N,COc1cc(c(OC)cc1Cl)[N+]([O-])=O,-3.1793123653
A-1688,potassium iodide,NLKNQRATVPKPDG-UHFFFAOYSA-M,[K+].[I-],0.935222717
A-1689,"N-octyl-1-{10-[4-(octylimino)-1,4-dihydropyridin-1-yl]decyl}-1,4-dihydropyridin-4-imine dihydrochloride",SMGTYJPMKXNQFY-UHFFFAOYSA-N,[H+].[H+].[Cl-].[Cl-].CCCCCCCCN=C1C=CN(CCCCCCCCCCN2C=CC(C=C2)=NCCCCCCCC)C=C1,-1.6427862658
A-1690,(2E)-3-phenylprop-2-enal,KJPRLNWUNMBNBZ-QPJJXVBHSA-N,O=C/C=C/c1ccccc1,-1.9688182578
A-1692,"1,1,2,2,3,3,4,4,4-nonafluoro-N-(2-hydroxyethyl)-N-methylbutane-1-sulfonamide",DSRUAYIFDCHEEV-UHFFFAOYSA-N,CN(CCO)[S](=O)(=O)C(F)(F)C(F)(F)C(F)(F)C(F)(F)F,-3.4036850425
A-1693,"N-[(8E)-1,5-dimethylbicyclo[3.2.1]octan-8-ylidene]hydroxylamine",RADAAKRXEPVXBU-UHFFFAOYSA-N,CC12CCCC(C)(CC1)C2=NO,-3.0741522071
A-1694,N-(4-hydroxyphenyl)acetamide,RZVAJINKPMORJF-UHFFFAOYSA-N,CC(=O)Nc1ccc(O)cc1,-1.0333232127
A-1699,(e)-But-2-enedioate,PMVSDNDAUGGCCE-ODZAUARKSA-L,[Fe++].[O-]C(=O)\C=C/C([O-])=O,-2.0840678994
A-1700,"(2E)-1-(2,6,6-trimethylcyclohex-2-en-1-yl)but-2-en-1-one",CRIGTVCBMUKRSL-FNORWQNLSA-N,C/C=C/C(=O)C1C(=CCCC1(C)C)C,-3.1378557654
A-1701,2-methyl-4-nitroaniline,XTTIQGSLJBWVIV-UHFFFAOYSA-N,Cc1cc(ccc1N)[N+]([O-])=O,-3.0361524841
A-1702,nonan-1-ol,ZWRUINPWMLAQRD-UHFFFAOYSA-N,CCCCCCCCCO,-3.0130118711
A-1703,"dipropyl cyclohexane-1,2-dicarboxylate",AGEFUZCBLJQXIA-UHFFFAOYSA-N,CCCOC(=O)C1CCCCC1C(=O)OCCC,-3.2626917327
A-1704,"2-(4-aminophenyl)-6-methyl-1,3-benzothiazole-7-sulfonic acid",KGZUHYIHYBDNLC-UHFFFAOYSA-N,Cc1ccc2nc(sc2c1[S](O)(=O)=O)c3ccc(N)cc3,-4.3324994616
A-1705,"1,4-dioxacycloheptadecane-5,17-dione",XRHCAGNSDHCHFJ-UHFFFAOYSA-N,O=C1CCCCCCCCCCCC(=O)OCCO1,-4.2616951793
A-1707,5-chloro-2-(4-chlorophenoxy)phenol,BYNQFCJOHGOKSS-UHFFFAOYSA-N,Oc1cc(Cl)ccc1Oc2ccc(Cl)cc2,-4.2393931239
A-1708,"(3E)-3,7-dimethylocta-1,3,6-triene",IHPKGUQCSIINRJ-CSKARUKUSA-N,CC(C)=CC\C=C(/C)C=C,-3.9729302572
A-1710,"tert-butyl 3,5,5-trimethylhexaneperoxoate",VSJBBIJIXZVVLQ-UHFFFAOYSA-N,CC(CC(=O)OOC(C)(C)C)CC(C)(C)C,-4.2100961015
A-1712,"N~2~-(4,6-diamino-1,3,5-triazin-2-yl)-1,3,5-triazine-2,4,6-triamine",YZEZMSPGIPTEBA-UHFFFAOYSA-N,Nc1nc(N)nc(Nc2nc(N)nc(N)n2)n1,-4.2253369782
A-1713,butyl 2-({[(2-butoxy-2-oxoethyl)sulfanyl]methyl}sulfanyl)acetate,QCWRDNFBMVSDEY-UHFFFAOYSA-N,CCCCOC(=O)CSCSCC(=O)OCCCC,-4.3430778582
A-1714,methyl 1-methyl-4-(propan-2-yl)bicyclo[2.2.2]oct-5-ene-2-carboxylate,NXAJZPARDMDLKH-UHFFFAOYSA-N,COC(=O)C1CC2(CCC1(C)C=C2)C(C)C,-4.2008661255
A-1715,methylcyclohexane,UAEPNZWRGJTJPN-UHFFFAOYSA-N,CC1CCCCC1,-3.8459348013
A-1716,2-phenylpropane-2-peroxol,YQHLDYVWEZKEOX-UHFFFAOYSA-N,CC(C)(OO)c1ccccc1,-1.0393798776
A-1718,7-oxabicyclo[4.1.0]heptan-3-ylmethyl 7-oxabicyclo[4.1.0]heptane-3-carboxylate,YXALYBMHAYZKAP-UHFFFAOYSA-N,O=C(OCC1CCC2OC2C1)C3CCC4OC4C3,-1.2604846902
A-1720,dimethyl carbonate,IEJIGPNLZYLLBP-UHFFFAOYSA-N,COC(=O)OC,0.1852603514
A-1723,cyclohexyl 2-methylprop-2-enoate,OIWOHHBRDFKZNC-UHFFFAOYSA-N,CC(=C)C(=O)OC1CCCCC1,-3.0885648226
A-1726,2-phenylethyl propanoate,HVGZQCSMLUDISR-UHFFFAOYSA-N,CCC(=O)OCCc1ccccc1,-3.1174443354
A-1727,benzyl butanoate,VONGZNXBKCOUHB-UHFFFAOYSA-N,CCCC(=O)OCc1ccccc1,-3.1174443354
A-1728,2-amino-5-acetamidobenzene-1-sulfonic acid,PHRVJZNHPVJYOM-UHFFFAOYSA-N,CC(=O)Nc1ccc(N)c(c1)[S](O)(=O)=O,-1.2318564393
A-1729,(aminooxy)sulfonic acid,DQPBABKTKYNPMH-UHFFFAOYSA-N,NO[S](O)(=O)=O,0.0752827195
A-1730,(3Z)-hex-3-en-1-yl methyl carbonate,BLOXMGXSDAAJGX-SNAWJCMRSA-N,CC/C=C/CCOC(=O)OC,-3.0698306477
A-1734,bicyclo[2.2.1]hept-2-ene,JFNLZVQOOSMTJK-UHFFFAOYSA-N,C1CC2CC1C=C2,-2.8477212054
A-1735,"2,4-dimethyl-1-nitrobenzene",BBUPBICWUURTNP-UHFFFAOYSA-N,Cc1ccc(c(C)c1)[N+]([O-])=O,-3.0555996074
A-1736,"2-(1,3-benzothiazol-2-ylsulfanyl)acetic acid",ZZUQWNYNSKJLPI-UHFFFAOYSA-N,OC(=O)CSc1sc2ccccc2n1,-3.2288979848
A-1740,3-(4-tert-butylphenyl)propanal,FZJUFJKVIYFBSY-UHFFFAOYSA-N,CC(C)(C)c1ccc(CCC=O)cc1,-3.1588329057
A-1741,"3,5-dinitrobenzoic acid",VYWYYJYRVSBHJQ-UHFFFAOYSA-N,OC(=O)c1cc(cc(c1)[N+]([O-])=O)[N+]([O-])=O,-2.2076497234
A-1743,"N-(2,2,6,6-tetramethylpiperidin-4-yl)-N-{6-[N-(2,2,6,6-tetramethylpiperidin-4-yl)formamido]hexyl}formamide",UONLDZHKYCFZRW-UHFFFAOYSA-N,CC1(C)CC(CC(C)(C)N1)N(CCCCCCN(C=O)C2CC(C)(C)NC(C)(C)C2)C=O,-1.5399557688
A-1744,aminothiourea,BRWIZMBXBAOCCF-UHFFFAOYSA-N,NNC(N)=S,-0.8457609068
A-1746,"2-(heptan-3-yl)-1,3-dioxolane",LQSZQAHPRJMRET-UHFFFAOYSA-N,CCCCC(CC)C1OCCO1,-3.1195968677
A-1747,2-methyl-2-[(2-methylbutan-2-yl)peroxy]butane,JJRDRFZYKKFYMO-UHFFFAOYSA-N,CCC(C)(C)OOC(C)(C)CC,-4.1004353388
A-1748,"1-(2,6,6-trimethylcyclohex-1-en-1-yl)pent-1-en-3-one",LMWNGLDCJDIIBR-CMDGGOBGSA-N,CCC(=O)/C=C/C1=C(C)CCCC1(C)C,-4.187455475
A-1749,"2,2,4-trimethyl-1-[(2-methylpropanoyl)oxy]pentan-3-yl 2-methylpropanoate",OMVSWZDEEGIJJI-UHFFFAOYSA-N,CC(C)C(OC(=O)C(C)C)C(C)(C)COC(=O)C(C)C,-4.333139569
A-1750,4-(propan-2-yl)cyclohexyl propanoate,FFEOEKMMMQFWBO-UHFFFAOYSA-N,CCC(=O)OC1CCC(CC1)C(C)C,-4.1734842136
A-1751,trimethoxy(octyl)silane,NMEPHPOFYLLFTK-UHFFFAOYSA-N,CCCCCCCC[Si](OC)(OC)OC,-4.2461281993
A-1753,"3,6,9-triethyl-3,6,9-trimethyl-1,2,4,5,7,8-hexaoxonane",KVWLLOIEGKLBPA-UHFFFAOYSA-N,CCC1(C)OOC(C)(CC)OOC(C)(CC)OO1,-4.3048554438
A-1756,bis-O-(benzylidene)-D-glucitol,DAZRYUTWPPBZOY-WUFCDUEQSA-N,O[C@]12COC(O[C@@H]1[C@H]3OC(OC[C@H]3O2)c4ccccc4)c5ccccc5,-4.4379626594
A-1759,"ethyl 5-oxo-1-phenyl-4,5-dihydro-1H-pyrazole-3-carboxylate",WBFXQKNQVZMOSQ-UHFFFAOYSA-N,CCOC(=O)C1=NN(C(=O)C1)c2ccccc2,-3.2553454425
A-1762,oct-7-enal,LIINGNMKNRSOGW-UHFFFAOYSA-N,C=CCCCCCC=O,-1.9972521926
A-1764,diphenylacetic acid,PYHXGXCGESYPCW-UHFFFAOYSA-N,OC(=O)C(c1ccccc1)c2ccccc2,-3.2230398856
A-1769,isopropyl chlorocarbonate,IVRIRQXJSNCSPQ-UHFFFAOYSA-N,CC(C)OC(Cl)=O,-0.9882911293
A-1770,sodium 2-hydroxybenzoate,ABBQHOQBGMUPJH-UHFFFAOYSA-M,[Na+].Oc1ccccc1C([O-])=O,-0.1074921694
A-1772,1-phenylvinyl acetate,HWCUCNKPBMGSSC-UHFFFAOYSA-N,CC(=O)OC(=C)c1ccccc1,-2.1135953878
A-1773,"ethyl 2-(2,4-dimethyl-1,3-dioxolan-2-yl)acetate",GSIXJEIRJVOUFB-UHFFFAOYSA-N,CCOC(=O)CC1(C)OCC(C)O1,-2.1798872233
A-1775,"1,3-dichlorobenzene",ZPQOPVIELGIULI-UHFFFAOYSA-N,Clc1cccc(Cl)c1,-3.0721598007
A-1776,2-(2-methylphenyl)ethanol,RUGISKODRCWQNE-UHFFFAOYSA-N,Cc1ccccc1CCO,-1.042878011
A-1779,"4-chlorobenzene-1,3-diol",JQVAPEJNIZULEK-UHFFFAOYSA-N,Oc1ccc(Cl)c(O)c1,-1.070567643
A-1780,"6,6-dimethyl-2-methylidenebicyclo[3.1.1]heptan-3-ol",LCYXQUJDODZYIJ-UHFFFAOYSA-N,CC1(C)C2CC(O)C(=C)C1C2,-2.09612479
A-1781,4-(propan-2-yl)cyclohexan-1-ol,DKKRDMLKVSKFMJ-UHFFFAOYSA-N,CC(C)C1CCC(O)CC1,-2.0680942751
A-1782,"1,2-dichloro-4-nitrobenzene",NTBYINQTYWZXLH-UHFFFAOYSA-N,[O-][N+](=O)c1ccc(Cl)c(Cl)c1,-3.2005181203
A-1783,"disodium 2,5-dichloro-4-{3-methyl-5-oxo-4-[(E)-2-(4-sulfonatophenyl)diazen-1-yl]-4,5-dihydro-1H-pyrazol-1-yl}benzene-1-sulfonate",FTZLWXQKVFFWLY-UHFFFAOYSA-L,[Na+].[Na+].CC1=NN(C(=O)C1N=Nc2ccc(cc2)[S]([O-])(=O)=O)c3cc(Cl)c(cc3Cl)[S]([O-])(=O)=O,-0.6605427703
A-1784,ammonium iron(III) citrate,FRHBOQMZUOWXQL-UHFFFAOYSA-K,N.[Fe+3].OC(CC([O-])=O)(CC([O-])=O)C([O-])=O,0.660921397
A-1785,disodium 2-amino-5-[(4-sulphonatophenyl)azo]benzenesulphonate,FPVGTPBMTFTMRT-UHFFFAOYSA-L,[Na+].[Na+].Nc1ccc(cc1[S]([O-])(=O)=O)N=Nc2ccc(cc2)[S]([O-])(=O)=O,-0.5243236254
A-1787,"Glycerol, propoxylated, esters with acrylic acid",DMQYPVOQAARSNF-UHFFFAOYSA-N,C=CC(=O)OCCCOCC(COCCCOC(=O)C=C)OCCCOC(=O)C=C,-2.5527472821
A-1789,N-{4-[(2-hydroxyethyl)sulfonyl]phenyl}acetamide,XIICKRYAUAVEQS-UHFFFAOYSA-N,CC(=O)Nc1ccc(cc1)[S](=O)(=O)CCO,-2.3069323017
A-1790,acetylene,HSFWRNGVRCDJHI-UHFFFAOYSA-N,C#C,-1.3364263766
A-1791,propiophenone,KRIOVPPHQSLHCZ-UHFFFAOYSA-N,CCC(=O)c1ccccc1,-2.0485000681
A-1792,4-tert-butylbenzaldehyde,OTXINXDGSUFPNU-UHFFFAOYSA-N,CC(C)(C)c1ccc(C=O)cc1,-3.1309552762
A-1793,6-aminonaphthalene-2-sulfonic acid,SEMRCUIXRUXGJX-UHFFFAOYSA-N,Nc1ccc2cc(ccc2c1)[S](O)(=O)=O,-3.2696160575
A-1794,"1-(2,6,6-trimethylcyclohex-2-en-1-yl)pentan-3-one; prop-2-yn-1-ol",BKHCAESJENSNLE-UHFFFAOYSA-N,CCC(=O)CCC1C(=CCCC1(C)C)C.OCC#C,-4.3219056885
A-1795,2-ethylhexyl nitrate,NKRVGWFEFKCZAP-UHFFFAOYSA-N,CCCCC(CC)CO[N+]([O-])=O,-4.1466934911
A-1796,"3-ethoxy-1,1,5-trimethylcyclohexane",JVBNHJDWWBSWLE-UHFFFAOYSA-N,CCOC1CC(C)CC(C)(C)C1,-4.1342944341
A-1797,isooctyl acrylate,DXPPIEDUBFUSEZ-UHFFFAOYSA-N,CC(C)CCCCCOC(=O)C=C,-4.1706554665
A-1798,"2-(cyclohexylsulfanyl)-2,3-dihydro-1H-isoindole-1,3-dione",UEZWYKZHXASYJN-UHFFFAOYSA-N,O=C1N(SC2CCCCC2)C(=O)c3ccccc13,-4.3237941723
A-1799,"N-cyclohexyl-3-[(4-{[3-(cyclohexylsulfamoyl)-2,4,6-trimethylphenyl]amino}-9,10-dioxo-9,10-dihydroanthracen-1-yl)amino]-2,4,6-trimethylbenzene-1-sulfonamide",AYYCRXDSCYPSRP-UHFFFAOYSA-N,Cc1cc(C)c(c(C)c1Nc2ccc(Nc3c(C)cc(C)c(c3C)[S](=O)(=O)NC4CCCCC4)c5C(=O)c6ccccc6C(=O)c25)[S](=O)(=O)NC7CCCCC7,-4.8187034651
A-1800,"(4-tert-butyl-3-hydroxy-2,6-dimethylphenyl)acetonitrile",OUKJZHRCKQJXSU-UHFFFAOYSA-N,Cc1cc(c(O)c(C)c1CC#N)C(C)(C)C,-4.2579024627
A-1801,cadmium(2+) ion sulfanediide,CJOBVZJTOIVNNF-UHFFFAOYSA-N,S=[Cd],-4.080623481
A-1802,"diethyl (3,5-di-tert-butyl-4-hydroxybenzyl)phosphonate",GJDRKHHGPHLVNI-UHFFFAOYSA-N,CCO[P](=O)(Cc1cc(c(O)c(c1)C(C)(C)C)C(C)(C)C)OCC,-4.4728088442
A-1803,diiron trimolybdenum dodecaoxide,NGJMAOMHPSCKKA-UHFFFAOYSA-N,[O--].[O--].[O--].[O--].[O--].[O--].[O--].[O--].[O--].[Fe+3].[Fe+3].[Mo].[Mo],-4.5716709895
A-1805,"zinc(2+) ion bis(2,2-dimethyloctanoate)",JUODUXKPGONLIM-UHFFFAOYSA-L,[Zn++].CC(C)(C)CC(C)(C)CC([O-])=O.CC(C)(C)CC(C)(C)CC([O-])=O,-3.5342880969
A-1806,"3,7-dimethyloct-6-enenitrile",MTDAKBBUYMYKAR-UHFFFAOYSA-N,CC(CCC=C(C)C)CC#N,-3.104157036
A-1807,2-nitrophenyl acetate,MRCKRGSNLOHYRA-UHFFFAOYSA-N,CC(=O)Oc1ccccc1[N+]([O-])=O,-2.1855239105
A-1808,"N-(4-amino-2,5-diethoxyphenyl)benzamide",CNXZLZNEIYFZGU-UHFFFAOYSA-N,CCOc1cc(NC(=O)c2ccccc2)c(OCC)cc1N,-2.4057571965
A-1809,"1,3-benzothiazole-2-thiol",YXIWHUQXZSMYRE-UHFFFAOYSA-N,S=C1Nc2ccccc2S1,-3.1515048921
A-1814,1-phenylpyrazolidin-3-one,CMCWWLVWPDLCRM-UHFFFAOYSA-N,O=C1CCN(N1)c2ccccc2,-1.1448233011
A-1815,1-(chloromethyl)-2-methylbenzene,VQRBXYBBGHOGFT-UHFFFAOYSA-N,Cc1ccccc1CCl,-3.0813269237
A-1816,prop-1-en-2-ylbenzene,XYLMUPLGERFSHI-UHFFFAOYSA-N,CC(=C)c1ccccc1,-3.0080823215
A-1817,2-methoxy-4-(prop-2-en-1-yl)phenol,RRAFCDWBNXTKKO-UHFFFAOYSA-N,COc1cc(CC=C)ccc1O,-2.1531779235
A-1819,"1-Octadecanol, phosphate, potassium salt",HFQLXRQLKSICDE-UHFFFAOYSA-N,[K].CCCCCCCCCCCCCCCCCC.O[P](O)(O)=O,-3.5298030639
A-1821,potassium hydroxysilanoylolate,WMWBFVSTSRDWRL-UHFFFAOYSA-N,[K+].O[Si]([O-])=O,-3.0044671735
A-1822,sodium hydroxysilanoylolate,ADPGKKZKGXANON-UHFFFAOYSA-N,O.O.O.O.O.[Na+].[Na+].[O-][Si]([O-])=O,-3.2659206297
A-1823,"1,3-difluorobenzene",UEMGWPRHOOEKTA-UHFFFAOYSA-N,Fc1cccc(F)c1,-2.0003579549
A-1825,cadmium(2+) ion carbonate,GKDXQAKPHKQZSC-UHFFFAOYSA-L,[Cd++].[O-]C([O-])=O,-2.1796827894
A-1826,(3Z)-hex-3-en-1-yl 2-methylpropanoate,OSMAJVWUIUORGC-WAYWQWQTSA-N,CC\C=C/CCOC(=O)C(C)C,-3.1741873711
A-1827,"3-({9,10-dioxo-4-[(2,4,6-trimethyl-3-sulfophenyl)amino]-9,10-dihydroanthracen-1-yl}amino)-2,4,6-trimethylbenzene-1-sulfonic acid; hexane-1,6-diamine",PAGCKSAVALMKPU-UHFFFAOYSA-N,Cc1cc(C)c(c(C)c1Nc2ccc(Nc3c(C)cc(C)c(c3C)[S](O)(=O)=O)c4C(=O)c5ccccc5C(=O)c24)[S](O)(=O)=O.NCCCCCCN,-2.8206093768
A-1829,"1,1,2,3,3-pentamethyl-2,3,4,5,6,7-hexahydro-1H-inden-4-one",MIZGSAALSYARKU-UHFFFAOYSA-N,CC1C(C)(C)C2=C(C(=O)CCC2)C1(C)C,-3.2653422506
A-1832,2-(4-{2-[4-(2-hydroxyethoxy)phenyl]propan-2-yl}phenoxy)ethan-1-ol,UUAGPGQUHZVJBQ-UHFFFAOYSA-N,CC(C)(c1ccc(OCCO)cc1)c2ccc(OCCO)cc2,-3.4517905534
A-1833,bis(propan-2-yl)amine,UAOMVDZJSHZZME-UHFFFAOYSA-N,CC(C)NC(C)C,0.0362422138
A-1835,"7-{[(2S,3R,4S,5S,6R)-4,5-dihydroxy-6-(hydroxymethyl)-3-{[(2S,3R,4R,5R,6S)-3,4,5-trihydroxy-6-methyloxan-2-yl]oxy}oxan-2-yl]oxy}-5-hydroxy-2-(4-hydroxyphenyl)-3,4-dihydro-2H-1-benzopyran-4-one",DFPMSGMNTNDNHN-ZPHOTFPESA-N,C[C@@H]1O[C@@H](O[C@@H]2[C@@H](O)[C@H](O)[C@@H](CO)O[C@H]2Oc3cc(O)c4C(=O)C[C@H](Oc4c3)c5ccc(O)cc5)[C@H](O)[C@H](O)[C@H]1O,-2.7224387153
A-1836,tin(2+) ion oxalate,OQBLGYCUQGDOOR-UHFFFAOYSA-L,[Sn++].[O-]C(=O)C([O-])=O,-2.2740087187
A-1837,magnesium(2+) ion carbonate,ZLNQQNXFFQJAID-UHFFFAOYSA-L,[Mg++].[O-]C([O-])=O,-2.8845018574
A-1839,"1,2-bis(2-methylpropyl) benzene-1,2-dicarboxylate",MGWAVDBGNNKXQV-UHFFFAOYSA-N,CC(C)COC(=O)c1ccccc1C(=O)OCC(C)C,-4.3838902648
A-1840,"2-[({2,2,4-trimethyl-6-[({2-[(2-methylprop-2-enoyl)oxy]ethoxy}carbonyl)amino]hexyl}carbamoyl)oxy]ethyl 2-methylprop-2-enoate 2-[({2,4,4-trimethyl-6-[({2-[(2-methylprop-2-enoyl)oxy]ethoxy}carbonyl)amino]hexyl}carbamoyl)oxy]ethyl 2-methylprop-2-enoate",UEKHZPDUBLCUHN-UHFFFAOYSA-N,CC(CCNC(=O)OCCOC(=O)C(C)=C)CC(C)(C)CNC(=O)OCCOC(=O)C(C)=C,-4.619923834
A-1843,1-(2-ethylbutyl)cyclohexane-1-carboxylic acid,XRKJBJLXKLOLKS-UHFFFAOYSA-N,CCC(CC)CC1(CCCCC1)C(O)=O,-4.281694517
A-1844,dibutyl but-2-enedioate,JBSLOWBPDRZSMB-BQYQJAHWSA-N,CCCCOC(=O)\C=C\C(=O)OCCCC,-4.3135515372
A-1850,2-[(2-methylprop-2-enoyl)oxy]ethyl 2-methylprop-2-enoate,STVZJERGLQHEKB-UHFFFAOYSA-N,CC(=C)C(=O)OCCOC(=O)C(C)=C,-2.2613132646
A-1853,methanaminium chloride,NQMRYBIKMRVZLB-UHFFFAOYSA-N,[Cl-].C[NH3+],-1.796002246
A-1855,"1,2,3-trimethylbenzene; 1H-indene; 2,3-dihydro-1H-indene",KDEGXTBNBBKAJX-UHFFFAOYSA-N,Cc1cccc(C)c1C.C2Cc3ccccc3C2.C4C=Cc5ccccc45,-3.51623781
A-1857,benzyl 4-hydroxybenzoate,MOZDKDIOPSPTBH-UHFFFAOYSA-N,Oc1ccc(cc1)C(=O)OCc2ccccc2,-3.3249813225
A-1859,(2E)-3-phenylprop-2-enenitrile,ZWKNLRXFUTWSOY-QPJJXVBHSA-N,N#C/C=C/c1ccccc1,-2.0829703418
A-1860,2-[(3-aminophenyl)sulfonyl]ethyl hydrogen sulfate,BCLOBWIFURSERL-UHFFFAOYSA-N,Nc1cccc(c1)[S](=O)(=O)CCO[S](O)(=O)=O,-1.4238808493
A-1861,"(3E)-4-(2,6,6-trimethylcyclohex-2-en-1-yl)but-3-en-2-one",UZFLPKAIBPNNCA-BQYQJAHWSA-N,CC(=O)/C=C/C1C(=CCCC1(C)C)C,-3.2586779358
A-1863,ethyl formate,WBJINCZRORDGAQ-UHFFFAOYSA-N,CCOC=O,0.1514941879
A-1864,2-amino-4-sulfobenzoic acid,GRGSHONWRKRWGP-UHFFFAOYSA-N,Nc1cc(ccc1C(O)=O)[S](O)(=O)=O,-1.3156745209
A-1865,4-(2-aminoethyl)phenol,DZGWFCGJZKJUFP-UHFFFAOYSA-N,NCCc1ccc(O)cc1,-1.1161078312
A-1866,sodium 6-amino-5-[[2-[(cyclohexylmethylamino)sulphonyl]phenyl]azo]-4-hydroxynaphthalene-2-sulphonate,LSBJGNGGNXAKCL-UHFFFAOYSA-M,[Na+].CN(C1CCCCC1)[S](=O)(=O)c2ccccc2NNC3=C4C(=O)C=C(C=C4C=CC3=N)[S]([O-])(=O)=O,-2.7116859389
A-1867,2-butoxyethyl benzoate,NMBQBIACXMPEQB-UHFFFAOYSA-N,CCCCOCCOC(=O)c1ccccc1,-3.3224225356
A-1868,2-methoxy-4-nitroaniline,GVBHRNIWBGTNQA-UHFFFAOYSA-N,COc1cc(ccc1N)[N+]([O-])=O,-3.2045127381
A-1869,zinc(2+) ion sulfanediide,WGPCGCOKHWGKJJ-UHFFFAOYSA-N,S=[Zn],-2.9676237394
A-1870,2-({3-[bis(carboxymethyl)amino]propyl}(carboxymethyl)amino)acetic acid,DMQQXDPCRUGSQB-UHFFFAOYSA-N,OC(=O)CN(CCCN(CC(O)=O)CC(O)=O)CC(O)=O,-1.4690725372
A-1871,"3,4,5-trifluorophenol",ZRTWIJKGTUGZJY-UHFFFAOYSA-N,Oc1cc(F)c(F)c(F)c1,-0.1536096917
A-1872,hexanoic acid,FUZZWVXGSFPDMH-UHFFFAOYSA-N,CCCCCC(O)=O,-1.0522193787
A-1873,"1,2,3-tributyl 2-hydroxypropane-1,2,3-tricarboxylate",ZFOZVQLOBQUTQQ-UHFFFAOYSA-N,CCCCOC(=O)CC(O)(CC(=O)OCCCC)C(=O)OCCCC,-3.5452709716
A-1874,"(2,4-dimethylcyclohex-3-en-1-yl)methyl acetate",LICUDMOFXVHDPB-UHFFFAOYSA-N,CC1C=C(C)CCC1COC(C)=O,-3.2503985577
A-1875,2-ethylhexyl cyanoacetate,ZNYBQVBNSXLZNI-UHFFFAOYSA-N,CCCCC(CC)COC(=O)CC#N,-3.2864784846
A-1876,tetralead trioxide sulphate,ULGNLQBHIXGZMQ-UHFFFAOYSA-L,[Pb++].[O-][S]([O-])(=O)=O.O=[Pb].O=[Pb].O=[Pb],-3.9794501756
A-1877,"6-{[amino(phenyl)acetyl]amino}-3,3-dimethyl-7-oxo-4-thia-1-azabicyclo[3.2.0]heptane-2-carboxylic acid",AVKUERGKIZMTKX-NJBDSQKTSA-N,CC1(C)S[C@@H]2[C@H](NC(=O)[C@H](N)c3ccccc3)C(=O)N2[C@H]1C(O)=O,-1.5390164423