ID,Name,InChIKey,SMILES,Solubility
B-2776,"phosphorohydrazidic acid, diphenyl ester",OTRWTWZSLKFJGX-UHFFFAOYSA-N,NN[P](=O)(Oc1ccccc1)Oc2ccccc2,-2.2373
B-2778,methyl phenylsulfonyl acetate,NLEAIFBNKPYTGN-UHFFFAOYSA-N,COC(=O)C[S](=O)(=O)c1ccccc1,-1.1406
B-2779,"l-alanine, n-[(ethylthio)thioxomethyl]-",WCIZDTOYENGUEG-BYPYZUCNSA-N,CCSC(=S)N[C@@H](C)C(O)=O,-0.9613
B-2780,"1,2,3-benzenetricarboxylic acid, 5-bromo-",JSTKTNCNRDMHRQ-UHFFFAOYSA-N,OC(=O)c1cc(Br)cc(C(O)=O)c1C(O)=O,-1.4481
B-2781,"1,1-bis(p-meo-ph)-2-nitropropane",PFPRAVYUXJWMGK-UHFFFAOYSA-N,COc1ccc(cc1)C(C(C)[N+]([O-])=O)c2ccc(OC)cc2,-4.5446
B-2782,dimefuron,DHWRNDJOGMTCPB-UHFFFAOYSA-N,CN(C)C(=O)Nc1ccc(N2N=C(OC2=O)C(C)(C)C)c(Cl)c1,-4.3258
B-2783,cumylphenyl diphenyl phosphate,KMLCDKUGVGTGBJ-UHFFFAOYSA-N,CC(C)c1cc(O[P](=O)(Oc2ccccc2)Oc3ccccc3)cc(c1)c4ccccc4,-6.8485
B-2784,"2-propenoic acid, 7-bromo-5-chloro-8-quinolinyl",YDNLKBDXQCHOTH-UHFFFAOYSA-N,Clc1cc(Br)c(OC(=O)C=C)c2ncccc12,-4.7168
B-2786,dipropylene glycol methyl ether,CUDYYMUUJHLCGZ-UHFFFAOYSA-N,COC(C)COC(C)CO,0.8292
B-2787,orbencarb,LLLFASISUZUJEQ-UHFFFAOYSA-N,CCN(CC)C(=O)SCc1ccccc1Cl,-4.031
B-2788,prothiophos,FITIWKDOCAUBQD-UHFFFAOYSA-N,CCCS[P](=S)(OCC)Oc1ccc(Cl)cc1Cl,-6.693
B-2789,butocarboxim,SFNPDDSJBGRXLW-UITAMQMPSA-N,CNC(=O)O\N=C(\C)C(C)SC,-0.7353
B-2790,butoxycarboxim,CTJBHIROCMPUKL-WEVVVXLNSA-N,CNC(=O)O\N=C(/C)C(C)[S](C)(=O)=O,-0.0267
B-2791,heptenophos,BFESKOTYBVOOQX-UHFFFAOYSA-N,CO[P](=O)(OC)OC1=C(Cl)CC2C=CC12,-2.0566
B-2792,"acetic acid, 2,2',2''-[methylidynetris(thio)]tri",ZBNBQISDCFIEQC-UHFFFAOYSA-N,OC(=O)CSC(SCC(O)=O)SCC(O)=O,-1.4243
B-2793,"2,2',3,4,4',5,5'-heptachlorobiphenyl",WBHQEUPUMONIKF-UHFFFAOYSA-N,Clc1cc(Cl)c(cc1Cl)c2cc(Cl)c(Cl)c(Cl)c2Cl,-8.0115
B-2794,"2,2',3,3',4,4',5-heptachlorobiphenyl",RMPWIIKNWPVWNG-UHFFFAOYSA-N,Clc1ccc(c(Cl)c1Cl)c2cc(Cl)c(Cl)c(Cl)c2Cl,-8.0566
B-2795,"dl-alanine, n-(2-chlorophenyl)-",AWRNWLYWQPIEDM-UHFFFAOYSA-N,CC(Nc1ccccc1Cl)C(O)=O,-2.3271
B-2796,tebutam,RJKCKKDSSSRYCB-UHFFFAOYSA-N,CC(C)N(Cc1ccccc1)C(=O)C(C)(C)C,-2.4704
B-2797,"butanoic acid, 4-(benzoylamino)-",BOZHPKGNNJPZKV-UHFFFAOYSA-N,OC(=O)CCCNC(=O)c1ccccc1,-1.2025
B-2800,sulprofos,JXHJNEJVUNHLKO-UHFFFAOYSA-N,CCCS[P](=S)(OCC)Oc1ccc(SC)cc1,-6.0171
B-2801,"benzoic acid, 5-chloro-2-hydroxy-4-methyl-",PNBKMRRXXVGPTJ-UHFFFAOYSA-N,Cc1cc(O)c(cc1Cl)C(O)=O,-3.1248
B-2802,imazalil base,PZBPKYOVPCNPJY-UHFFFAOYSA-N,Clc1ccc(C(Cn2ccnc2)OCC=C)c(Cl)c1,-3.2178
B-2803,bilanafos,GINJFDRNADDBIN-FXQIFTODSA-N,C[C@H](NC(=O)[C@H](C)NC(=O)[C@@H](N)CC[P](C)(O)=O)C(O)=O,0.4904
B-2806,piroxicam,LDJVNWFKNMYYNT-FYWRMAATSA-N,CN1C(=C(/O)Nc2ccccn2)/C(=O)c3ccccc3[S]1(=O)=O,-4.1586
B-2807,fenbufen,ZPAKPRAICRBAOD-UHFFFAOYSA-N,OC(=O)CCC(=O)c1ccc(cc1)c2ccccc2,-5.0609
B-2809,"benzene, 1,1'-oxybis-, hexabromo deriv.",OJMHGSMSQZEBFH-UHFFFAOYSA-N,Brc1cc(Br)c(Oc2cc(Br)cc(Br)c2Br)c(Br)c1,-8.1979
B-2810,phosdiphen,HEMINMLPKZELPP-UHFFFAOYSA-N,CCO[P](=O)(Oc1ccc(Cl)cc1Cl)Oc2ccc(Cl)cc2Cl,-5.774
B-2811,"2,2',3,4'-tetrachlorobiphenyl",ALFHIHDQSYXSGP-UHFFFAOYSA-N,Clc1ccc(c(Cl)c1)c2cccc(Cl)c2Cl,-6.6813
B-2812,2-methyl-3-hexyne,POBOUPFSQKXZFZ-UHFFFAOYSA-N,CCC#CC(C)C,-2.7448
B-2813,isothioate,SPCNPOWOBZQWJK-UHFFFAOYSA-N,CO[P](=S)(OC)SCCSC(C)C,-3.4288
B-2814,"9-octadecenoic acid, 12-(sulfooxy)-",CYKFQSXTIVGYDT-UHFFFAOYSA-N,CCCCCCC(CC=CCCCCCCCC(O)=O)O[S](O)(=O)=O,-0.5781
B-2815,1-hexadecanol,BXWNKGSJHAJOGX-UHFFFAOYSA-N,CCCCCCCCCCCCCCCCO,-6.7697
B-2816,rovral (iprodione),ONUFESLQCSAYKA-UHFFFAOYSA-N,CC(C)NC(=O)N1CC(=O)N(C1=O)c2cc(Cl)cc(Cl)c2,-4.3757
B-2817,tiocarbazil,PHSUVQBHRAWOQD-UHFFFAOYSA-N,CCC(C)N(C(C)CC)C(=O)SCc1ccccc1,-5.0484
B-2818,"benzamide, 2-amino-3,5-dichloro-",PRKRQUUATBDWTL-UHFFFAOYSA-N,NC(=O)c1cc(Cl)cc(Cl)c1N,-2.0814
B-2819,ribavirin,IWUCXVSUMQZMFG-AFCXAGJDSA-N,NC(=O)c1ncn(n1)[C@@H]2O[C@H](CO)[C@@H](O)[C@H]2O,-0.2355
B-2820,labetalol,SGUAFYQXFOLMHL-UHFFFAOYSA-N,CC(CCc1ccccc1)NCC(O)c2ccc(O)c(c2)C(N)=O,-3.4482
B-2821,"benzoic acid, 4-amino-, nonyl ester",KKGIDNSPWHBLLE-UHFFFAOYSA-N,CCCCCCCCCOC(=O)c1ccc(N)cc1,-6
B-2822,validamycin,JARYYMUOCXVXNK-CSLFJTBJSA-N,OC[C@H]1C[C@H](N[C@H]2C=C(CO)[C@@H](O)[C@H](O)[C@H]2O)[C@H](O)[C@@H](O)[C@@H]1O[C@@H]3O[C@H](CO)[C@@H](O)[C@H](O)[C@H]3O,0.3032
B-2823,metoprolol,IUBSYMUCCVWXPE-UHFFFAOYSA-N,COCCc1ccc(OCC(O)CNC(C)C)cc1,-1.1992
B-2824,"benzamide, n-hydroxy-2-iodo-n-phenyl-",STYDGEPZWWDNEI-UHFFFAOYSA-N,ON(c1ccccc1)C(=O)c2ccccc2I,-3.5304
B-2825,amikacin,LKCWBDHBTVXHDL-RMDFUYIESA-N,NCC[C@H](O)C(=O)N[C@@H]1C[C@H](N)[C@@H](O[C@H]2O[C@H](CN)[C@@H](O)[C@H](O)[C@H]2O)[C@H](O)[C@H]1O[C@H]3O[C@H](CO)[C@@H](O)[C@H](N)[C@H]3O,-0.5004
B-2826,"dl-phenylalanine, n-(aminocarbonyl)-",IPWQOZCSQLTKOI-QMMMGPOBSA-M,NC(=O)N[C@@H](Cc1ccccc1)C([O-])=O,-2.0958
B-2827,"pyrido[3,2-d]pyrimidin-4(1h)-one",FSKYZRCACCHDGR-UHFFFAOYSA-N,O=C1N=CNc2cccnc12,-2.0656
B-2828,"2',3,5-trichlorobiphenyl",GXVMAQACUOSFJF-UHFFFAOYSA-N,Clc1cc(Cl)cc(c1)c2ccccc2Cl,-6.2999
B-2829,"acetamide, 2,2-dichloro-n,n-di-2-propenyl-",YRMLFORXOOIJDR-UHFFFAOYSA-N,ClC(Cl)C(=O)N(CC=C)CC=C,-1.6193
B-2830,1-chloro-2-nitropropane,FPJNQQRSBJPGHM-VKHMYHEASA-N,C[C@@H](CCl)[N+]([O-])=O,-1.1887
B-2831,"1,2-bis(2,4,6-tribromophenoxy)ethane",YATIGPZCMOYEGE-UHFFFAOYSA-N,Brc1cc(Br)c(OCCOc2c(Br)cc(Br)cc2Br)c(Br)c1,-6.5363
B-2832,heptachlorodibenzo-p-dioxin,WCLNVRQZUKYVAI-UHFFFAOYSA-N,Clc1cc2Oc3c(Cl)c(Cl)c(Cl)c(Cl)c3Oc2c(Cl)c1Cl,-11.4795
B-2833,etacelasil,SLZWEMYSYKOWCG-UHFFFAOYSA-N,COCCO[Si](CCCl)(OCCOC)OCCOC,-1.1029
B-2834,perfluidone,WHTBVLXUSXVMEV-UHFFFAOYSA-N,Cc1cc(ccc1N[S](=O)(=O)C(F)(F)F)[S](=O)(=O)c2ccccc2,-3.8009
B-2835,"5-pyrimidinecarboxylic aicd, 1,2,3,4-tetrahydro-",FQFSHLBWRUOCPX-UHFFFAOYSA-N,CCOC(=O)C1=CNC(=S)NC1=O,-2.0985
B-2836,"d-glutamine, n2-l-leucyl-",JYOAXOMPIXKMKK-JGVFFNPUSA-N,CC(C)C[C@H](N)C(=O)N[C@H](CCC(N)=O)C(O)=O,-1.5687
B-2837,biocozamycin,WOUDXEYYJPOSNE-CJYLUKGNSA-N,CC(O)(CO)C(O)[C@@]12NC(=O)[C@@](O)(NC1=O)C(=C)CCO2,-0.1971
B-2838,"acetic acid, (2-bromo-4,6-dimethylphenoxy)-",XISIDZGSQIHSIK-UHFFFAOYSA-N,Cc1cc(C)c(OCC(O)=O)c(Br)c1,-3.1234
B-2839,etrimfos,FGIWFCGDPUIBEZ-UHFFFAOYSA-N,CCOc1cc(O[P](=S)(OC)OC)nc(CC)n1,-3.8638
B-2840,minoxidil,ZIMGGGWCDYVHOY-UHFFFAOYSA-N,NC1=CC(=NC(=N)N1O)N2CCCCC2,-1.9782
B-2841,penbutolol,KQXKVJAGOJTNJS-OAHLLOKOSA-N,CC(C)(C)NC[C@@H](O)COc1ccccc1C2CCCC2,-1.6195
B-2842,"2,2',3,4',5',6-pcb",LKHLFUVHHXCNJH-UHFFFAOYSA-N,Clc1ccc(Cl)c(c1Cl)c2cc(Cl)c(Cl)cc2Cl,-7.93
B-2843,"2,2',3,3',4,6'-hexachlorobiphenyl",OKBJVIVEFXPEOU-UHFFFAOYSA-N,Clc1ccc(c(Cl)c1Cl)c2c(Cl)ccc(Cl)c2Cl,-7.65
B-2844,"2,3,3',4,4',5-hexachlorobiphenyl",LCXMEXLGMKFLQO-UHFFFAOYSA-N,Clc1ccc(cc1Cl)c2cc(Cl)c(Cl)c(Cl)c2Cl,-7.8306
B-2845,"2,2',3,3',4,5,6'-heptachlorobiphenyl",ZDLMBNHYTPHDLF-UHFFFAOYSA-N,Clc1ccc(Cl)c(c1Cl)c2cc(Cl)c(Cl)c(Cl)c2Cl,-8.5901
B-2846,"2,3',6-trichlorobiphenyl",VQOFJPFYTCHPTR-UHFFFAOYSA-N,Clc1cccc(c1)c2c(Cl)cccc2Cl,-6.8245
B-2847,"8-quinolinol, 2-methyl-5-nitro-",XYPACLZTPMHPLB-UHFFFAOYSA-N,Cc1ccc2c(ccc(O)c2n1)[N+]([O-])=O,-3.9598
B-2848,"ethane, 1,1-bis(methylsulfonyl)-",LLGSMJDXJRKMFD-UHFFFAOYSA-N,CC([S](C)(=O)=O)[S](C)(=O)=O,-1.4188
B-2849,"alanine, n-(aminocarbonyl)-2-methyl-",FMXWPTBQTITILA-UHFFFAOYSA-N,CC(C)(NC(N)=O)C(O)=O,-1.1648
B-2850,"2-propenoic acid, 3-(2-ethoxyphenyl)-, (z)-",UXTDCJJEJZCEBF-FPLPWBNLSA-N,CCOc1ccccc1\C=C/C(O)=O,-2.5234
B-2852,glyphosate isopropylamine salt,ZEKANFGSDXODPD-UHFFFAOYSA-N,CC(C)N.OC(=O)CNC[P](O)(O)=O,0.6629
B-2853,Diethatyl-ethyl,WFKSADNZWSKCRZ-UHFFFAOYSA-N,CCOC(=O)CN(C(=O)CCl)c1c(CC)cccc1CC,-3.4727
B-2854,propane-2-thiosulfinic acid s-isopropyl ester,IYZLJTJFIUHNRL-UHFFFAOYSA-N,CC(C)S[S](=O)C(C)C,-0.823
B-2855,"2,4-pentanediol, 2-methyl-4-(1-naphthalenyl)-",VIDCUYMAESSAFM-UHFFFAOYSA-N,CC(C)(O)CC(C)(O)c1cccc2ccccc12,-3.2419
B-2856,"2,8-dichlorodibenzo-p-dioxin",WMWJCKBJUQDYLM-UHFFFAOYSA-N,Clc1ccc2Oc3ccc(Cl)cc3Oc2c1,-7.1806
B-2857,octachlorodibenzofuran,RHIROFAGUQOFLU-UHFFFAOYSA-N,Clc1c(Cl)c(Cl)c2c(oc3c(Cl)c(Cl)c(Cl)c(Cl)c23)c1Cl,-11.5827
B-2858,3-bromo-2-iodo-acrylic acid,QCXZPFMTVRXKMN-UHFFFAOYSA-N,OC(=O)C(I)=CBr,-1.2118
B-2859,thiofanox,FZSVSABTBYGOQH-XFFZJAGNSA-N,CNC(=O)O\N=C(\CSC)C(C)(C)C,-1.6231
B-2860,dinocap,RDUUEJDFJHUJFG-BQYQJAHWSA-N,C/C=C/C(=O)Oc1c(cc(cc1C(C)(C)CC(C)(C)C)[N+]([O-])=O)[N+]([O-])=O,-4.9595
B-2861,"2,2',4,4',6-pentachlorobiphenyl",RKUAZJIXKHPFRK-UHFFFAOYSA-N,Clc1ccc(c(Cl)c1)c2c(Cl)cc(Cl)cc2Cl,-7.66
B-2862,cyphenothrin,FJDPATXIBIBRIM-UHFFFAOYSA-N,CC(C)=CC1C(C(=O)OC(C#N)c2cccc(Oc3ccccc3)c2)C1(C)C,-7.5746
B-2863,fenpropathrin,XQUXKZZNEFRCAW-UHFFFAOYSA-N,CC1(C)C(C(=O)OC(C#N)c2cccc(Oc3ccccc3)c2)C1(C)C,-6.0248
B-2864,"hexanoic acid, 4-ethyl-5-oxo-",LXFXKKKZRKUZPC-UHFFFAOYSA-N,CCC(CCC(O)=O)C(C)=O,-0.451
B-2865,"acetamide, 2-cyano-n-methyl-n- (methylamino)carb",DBEIAMRYPAJZHO-UHFFFAOYSA-N,CNC(=O)N(C)C(=O)CC#N,0.1709
B-2866,"1,1'-biphenyl, 2,3,3',4,4',5,5'-heptachloro-",XUAWBXBYHDRROL-UHFFFAOYSA-N,Clc1cc(cc(Cl)c1Cl)c2cc(Cl)c(Cl)c(Cl)c2Cl,-8.7202
B-2867,"acetamide, 2-(acetylamino)-n-phenyl-",WTMBVEKOTAHGAB-UHFFFAOYSA-N,CC(=O)NCC(=O)Nc1ccccc1,-1.5678
B-2868,oxadiargyl,DVOODWOZJVJKQR-UHFFFAOYSA-N,CC(C)(C)C1=NN(C(=O)O1)c2cc(OCC#C)c(Cl)cc2Cl,-5.9648
B-2869,"1h-purine-2,6-dione, 1-ethyl-3,7-dihydro-3,7-dim",KRVVZPXPQUPXJE-UHFFFAOYSA-N,CCN1C(=O)N(C)c2ncn(C)c2C1=O,-0.719
B-2870,ethyl 2-formamido-(phenylvinyl)acrylate,RZONVOYARNZXEO-UHFFFAOYSA-N,CCOC(=O)C(NC=O)=CC=Cc1ccccc1,-3.3483
B-2871,"tris(1,3-dichloropropyl) phosphate",DHNUXDYAOVSGII-UHFFFAOYSA-N,ClCCC(Cl)O[P](=O)(OC(Cl)CCCl)OC(Cl)CCCl,-3.6344
B-2872,"1,1'-biphenyl, 2,2',3,3',4,5',6-heptachloro-",KJBDZJFSYQUNJT-UHFFFAOYSA-N,Clc1cc(Cl)c(Cl)c(c1)c2c(Cl)cc(Cl)c(Cl)c2Cl,-8.68
B-2873,"2,2',3,3',4,5',6,6'-octachlorobiphenyl",LJQOBQLZTUSEJA-UHFFFAOYSA-N,Clc1cc(Cl)c(c(Cl)c1Cl)c2c(Cl)c(Cl)cc(Cl)c2Cl,-9.1999
B-2875,pendimethalin,CHIFOSRWCNZCFN-UHFFFAOYSA-N,CCC(CC)Nc1c(cc(C)c(C)c1[N+]([O-])=O)[N+]([O-])=O,-5.9721
B-2876,methoprene,NFGXHKASABOEEW-LDRANXPESA-N,COC(C)(C)CCCC(C)C\C=C\C(C)=C\C(=O)OC(C)C,-5.3459
B-2877,"2-pteridinamine, n,n-dimethyl-",JXKUCNDDDQEMSS-UHFFFAOYSA-N,CN(C)c1ncc2nccnc2n1,0.3586
B-2880,sparticide,IPENDKRRWFURRE-UHFFFAOYSA-N,Fc1ccc(cc1)N2C(=O)C(=C(Cl)C2=O)Cl,-4.6442
B-2881,"4-methoxy-3,3'-dimethylbenzophenone",BWPYBAJTDILQPY-UHFFFAOYSA-N,COc1ccc(cc1C)C(=O)c2cccc(C)c2,-5.0797
B-2882,"d-mannose, (aminocarbonyl)hydrazone",NOUQGOYNEGWDCZ-KVTDHHQDSA-N,NC(=O)NN=C[C@@H](O)[C@@H](O)[C@H](O)[C@H](O)CO,-0.53
B-2883,metamitron,VHCNQEUWZYOAEV-UHFFFAOYSA-N,CC1=NN=C(c2ccccc2)C(=O)N1N,-2.0506
B-2885,"1,1'-biphenyl, 2,3',4',6-tetrachloro-",WYVBETQIUHPLFO-UHFFFAOYSA-N,Clc1ccc(cc1Cl)c2c(Cl)cccc2Cl,-7.0199
B-2886,"1,1'-biphenyl, 2,2',3,6'-tetrachloro-",VHGHHZZTMJLTJX-UHFFFAOYSA-N,Clc1ccc(Cl)c(c1Cl)c2ccccc2Cl,-6.3001
B-2887,bupirimate,DSKJPMWIHSOYEA-UHFFFAOYSA-N,CCCCc1c(C)nc(NCC)nc1O[S](=O)(=O)N(C)C,-4.1579
B-2888,"acetamide, n-(4-ethoxy-2-methylphenyl)-",GWGGYWFWMFMBKT-UHFFFAOYSA-N,CCOc1ccc(NC(C)=O)c(C)c1,-1.839
B-2889,tricyclazole,DQJCHOQLCLEDLL-UHFFFAOYSA-N,Cc1cccc2sc3nncn3c12,-2.0729
B-2890,"benzaldehyde, 4-hydroxy-5-methoxy-2-methyl-",MNMCHJAOXXQRID-UHFFFAOYSA-N,COc1cc(C=O)c(C)cc1O,-2.7435
B-2891,nadolol,VWPOSFSPZNDTMJ-UCWKZMIHSA-N,CC(C)(C)NCC(O)COc1cccc2C[C@@H](O)[C@@H](O)Cc12,-1.5699
B-2893,isazofos,XRHGWAGWAHHFLF-UHFFFAOYSA-N,CCO[P](=S)(OCC)Oc1nn(C(C)C)c(Cl)n1,-3.6577
B-2894,bifenox,SUSRORUBZHMPCO-UHFFFAOYSA-N,COC(=O)c1cc(Oc2ccc(Cl)cc2Cl)ccc1[N+]([O-])=O,-5.9343
B-2895,kinoprene,FZRBKIRIBLNOAM-WHVZTFIZSA-N,CC(C)CCCC(C)C\C=C\C(C)=C\C(=O)OCC#C,-4.7239
B-2896,daimuron,NNYRZQHKCHEXSD-UHFFFAOYSA-N,Cc1ccc(NC(=O)NC(C)(C)c2ccccc2)cc1,-5.3495
B-2897,methyldymron,FMINYZXVCTYSNY-UHFFFAOYSA-N,CN(C(=O)NC(C)(C)c1ccccc1)c2ccccc2,-3.3495
B-2898,"2,2',3,3',4,4',5,6'-octachlorobiphenyl",BQFCCUSDZLKBJG-UHFFFAOYSA-N,Clc1cc(Cl)c(c(Cl)c1Cl)c2cc(Cl)c(Cl)c(Cl)c2Cl,-9.42
B-2899,oxyfluorfen,OQMBBFQZGJFLBU-UHFFFAOYSA-N,CCOc1cc(Oc2ccc(cc2Cl)C(F)(F)F)ccc1[N+]([O-])=O,-6.4939
B-2900,"2-propanol, 1,3-dipropoxy-",KLDDZFJSRPXUIY-UHFFFAOYSA-N,CCCOCC(O)COCCC,-0.3431
B-2901,triadimefon,WURBVZBTWMNKQT-UHFFFAOYSA-N,CC(C)(C)C(=O)C(Oc1ccc(Cl)cc1)n2cncn2,-3.6137
B-2902,"propanamide, 2-oxo-n-phenyl-",VOKLUGVCKPXDJE-UHFFFAOYSA-N,CC(=O)C(=O)Nc1ccccc1,-1.3676
B-2903,"valeric acid, 5-(benzenesulfonyl-methyl-amino)-",WFADZGFZNJEISA-UHFFFAOYSA-N,CN(CCCCC(O)=O)[S](=O)(=O)c1ccccc1,-1.5585
B-2904,"3-pyridinecarboxylic acid, pentyl ester",SYIRQWIOOCVBTC-UHFFFAOYSA-N,CCCCCOC(=O)c1cccnc1,-2.3776
B-2905,"phenol, 4-(2-aminoethyl)-2-nitro-",IUCYCHQMRZWPGT-UHFFFAOYSA-N,NCCc1ccc(O)c(c1)[N+]([O-])=O,-1.3399
B-2906,"2,4(1h,3h)-pteridinedione, 1,6,7-trimethyl-",XCOSZAUDQCILGD-UHFFFAOYSA-N,CN1C(=O)NC(=O)c2nc(C)c(C)nc12,-2.1129
B-2908,ipt (isoprothiolane),UFHLMYOGRXOCSL-UHFFFAOYSA-N,CC(C)OC(=O)C(C(=O)OC(C)C)=C1SCCS1,-3.7306
B-2910,acifluorfen,NUFNQYOELLVIPL-UHFFFAOYSA-N,OC(=O)c1cc(Oc2ccc(cc2Cl)C(F)(F)F)ccc1[N+]([O-])=O,-3.4791
B-2911,terfenadine,GUGOEEXESWIERI-UHFFFAOYSA-N,CC(C)(C)c1ccc(cc1)C(O)CCCN2CCC(CC2)C(O)(c3ccccc3)c4ccccc4,-6.69
B-2912,azacyclohexadecan-2-one,NIMGTMNBWOVIHM-UHFFFAOYSA-N,O=C1CCCCCCCCCCCCCCN1,-2.874
B-2913,Vx agent,JJIUCEJQJXNMHV-UHFFFAOYSA-N,CCO[P](C)(=O)SCCN(C(C)C)C(C)C,-0.95
B-2914,"hexanamide, n,n'-1,2-ethanediylbis-",JUFADMDNFLYBPC-UHFFFAOYSA-N,CCCCCC(=O)NCCNC(=O)CCCCC,-3.1079
B-2915,"benzeneacetic acid, .alpha.-(acetyloxy)-, (r)-",OBCUSTCTKLTMBX-SECBINFHSA-N,CC(=O)O[C@@H](C(O)=O)c1ccccc1,-1.2313
B-2916,"galatitol, 2,3:4,5-dianhydro-1,6-dideoxy-",SINVKWSLMGHBSX-UHFFFAOYSA-N,CC1OC1C2OC2C,-0.0575
B-2917,"1h-indole-2,3-dicarboxamide, 1-methyl-",VUUWSWSYQZKQQJ-UHFFFAOYSA-N,Cn1c2ccccc2c(C(N)=O)c1C(N)=O,-1.8184
B-2918,"1,3-benzenedicarboxylic acid, 4-sulfo-",JSYUFUJLFRBMEN-UHFFFAOYSA-N,OC(=O)c1ccc(c(c1)C(O)=O)[S](O)(=O)=O,0.6087
B-2919,"1h-pyrazol-5-amine, 3,4-dimethyl-1-phenyl-",PUAVVYSZRNWCGP-UHFFFAOYSA-N,Cc1nn(c2ccccc2)c(N)c1C,-1.6704
B-2920,metolachlor,WVQBLGZPHOPPFO-UHFFFAOYSA-N,CCc1cccc(C)c1N(C(C)COC)C(=O)CCl,-2.7287
B-2921,hexazinone,CAWXEEYDBZRFPE-UHFFFAOYSA-N,CN(C)C1=NC(=O)N(C2CCCCC2)C(=O)N1C,-0.8834
B-2922,buminafos,NMBXMBCZBXUXAM-UHFFFAOYSA-N,CCCCNC1(CCCCC1)[P](=O)(OCCCC)OCCCC,-3.3105
B-2923,buthiobate,ZZVVDIVWGXTDRQ-UHFFFAOYSA-N,CCCCSC(SCc1ccc(cc1)C(C)(C)C)=Nc2cccnc2,-5.5712
B-2925,"3-(5-Tert-butyl-1,3,4-thiadiazol-2-yl)-1-(2,2-dimethoxyethyl)-1-methylurea",JEBBYIJCXLFPCX-UHFFFAOYSA-N,COC(CN(C)C(=O)Nc1sc(nn1)C(C)(C)C)OC,-1.8678
B-2926,cimetidine,AQIXAKUUQRKLND-UHFFFAOYSA-N,CN=C(NCCSCc1nc[nH]c1C)NC#N,-1.4298
B-2927,cloethocarb,PITWUHDDNUVBPT-UHFFFAOYSA-N,CNC(=O)Oc1ccccc1OC(CCl)OC,-2.3005
B-2928,milbemectin a3,ZLBGSRMUSVULIE-SJRQICMCSA-N,C[C@@H]/1CC(=C/CC2C[C@@H](C[C@]3(CC[C@H](C)C(C)O3)O2)OC(=O)[C@@H]4C=C(C)[C@@H](O)[C@H]5OCC(=C\C=C1)/[C@@]45O)/C,-5.7787
B-2929,milbemectin a4,VOZIAWLUULBIPN-DFYAAVTESA-N,CCC1O[C@]2(CCC1C)C[C@@H]3C[C@@H](C\C=C(/C)CC(C)/C=C/C=C/4CO[C@@H]5[C@H](O)C(=C[C@@H](C(=O)O3)[C@]45O)C)O2,-4.8772
B-2931,"2,4-dichlorodiphenyl ether",KXIPYLZZJZMMPD-UHFFFAOYSA-N,Clc1ccc(Oc2ccccc2)c(Cl)c1,-4.6304
B-2932,"2,2',3,4',5,5'-hexachlorobiphenyl",BQHCQAQLTCQFJZ-UHFFFAOYSA-N,Clc1cc(Cl)c(Cl)c(c1)c2cc(Cl)c(Cl)cc2Cl,-8.5801
B-2933,pipemidic acid,JOHZPMXAZQZXHR-UHFFFAOYSA-N,CCN1C=C(C(O)=O)C(=O)c2cnc(nc12)N3CCNCC3,-2.974
B-2934,4(3h)-pyrimidone,TZYQTWHRLVDYPL-UHFFFAOYSA-N,O=C1CC=NC=N1,0.586
B-2935,1-(3-Chlorophthalimido)cyclohexanecarboxamide,PSAVXKLISNEJJE-UHFFFAOYSA-N,NC(=O)C1(CCCCC1)N2C(=O)c3cccc(Cl)c3C2=O,-4.0097
B-2936,cyclohexylmercapto-acetic acid,FBBVJXMXGVHARA-UHFFFAOYSA-N,OC(=O)CSC1CCCCC1,-1.3381
B-2937,"5-ethyl-5-methyl-2,4-oxazolidinedione",MGHNWMRNFGYJKE-UHFFFAOYSA-N,CCC1(C)OC(=O)NC1=O,0.0203
B-2938,naproanilide,LVKTWOXHRYGDMM-UHFFFAOYSA-N,CC(Oc1ccc2ccccc2c1)C(=O)Nc3ccccc3,-5.5894
B-2940,"2,2',3,4,5-pentachlorobiphenyl",AUGNBQPSMWGAJE-UHFFFAOYSA-N,Clc1cccc(c1Cl)c2ccc(Cl)c(Cl)c2Cl,-7.0502
B-2941,"2,2',3,5,5',6-hexachlorobiphenyl",UHCLFIWDCYOTOL-UHFFFAOYSA-N,Clc1ccc(Cl)c(c1)c2c(Cl)c(Cl)cc(Cl)c2Cl,-7.4254
B-2942,"2,2',3,3',5,6,6'-heptachlorobiphenyl",XYHVYEUZLSYHDP-UHFFFAOYSA-N,Clc1ccc(Cl)c(c1Cl)c2c(Cl)c(Cl)cc(Cl)c2Cl,-7.94
B-2943,"1,1'-biphenyl, 2,2',3,3',4,6,6'-heptachloro-",HGMYRFJAJNYBRX-UHFFFAOYSA-N,Clc1ccc(Cl)c(c1Cl)c2c(Cl)cc(Cl)c(Cl)c2Cl,-8.1501
B-2944,"2,2',3,3',5,5',6-heptachlorobiphenyl",WCIBKXHMIXUQHK-UHFFFAOYSA-N,Clc1cc(Cl)c(Cl)c(c1)c2c(Cl)c(Cl)cc(Cl)c2Cl,-8.5901
B-2947,"1,1'-biphenyl, 2,2',3,3',4,5',6'-heptachloro-",CXOYNJAHPUASHN-UHFFFAOYSA-N,Clc1ccc(c(Cl)c1Cl)c2c(Cl)c(Cl)cc(Cl)c2Cl,-8.42
B-2948,"2,2',3,3',4,4',6-heptachlorobiphenyl",TZMHVHLTPWKZCI-UHFFFAOYSA-N,Clc1ccc(c(Cl)c1Cl)c2c(Cl)cc(Cl)c(Cl)c2Cl,-8.2605
B-2949,"2,3',4,4',5,5'-hexachlorobiphenyl",AZXHAWRMEPZSSV-UHFFFAOYSA-N,Clc1cc(Cl)c(cc1Cl)c2cc(Cl)c(Cl)c(Cl)c2,-8.21
B-2950,"1,1'-biphenyl, 2,2',3,3',4,5,6,6'-octachloro-",HHXNVASVVVNNDG-UHFFFAOYSA-N,Clc1ccc(Cl)c(c1Cl)c2c(Cl)c(Cl)c(Cl)c(Cl)c2Cl,-9.1
B-2951,"2,2',3,3',4,5,5'-heptachlorobiphenyl",HOPMUCXYRNOABF-UHFFFAOYSA-N,Clc1cc(Cl)c(Cl)c(c1)c2cc(Cl)c(Cl)c(Cl)c2Cl,-9.1
B-2952,"2,2',3,3',4,5,5',6'-octachlorobiphenyl",HJBYDWKNARZTMJ-UHFFFAOYSA-N,Clc1cc(c(Cl)c(Cl)c1Cl)c2c(Cl)c(Cl)cc(Cl)c2Cl,-9.29
B-2953,"1,1'-biphenyl, 2,2',3,4,4',5,5',6-octachloro-",DCPDZFRGNJDWPP-UHFFFAOYSA-N,Clc1cc(Cl)c(cc1Cl)c2c(Cl)c(Cl)c(Cl)c(Cl)c2Cl,-9.5
B-2954,"2,3,4,5,6,2',3',5',6'-pcb",XIFFTDRFWYFAPO-UHFFFAOYSA-N,Clc1cc(Cl)c(Cl)c(c1Cl)c2c(Cl)c(Cl)c(Cl)c(Cl)c2Cl,-10.4115
B-2955,"2,2',3,3',4,4',5,6-octachlorobiphenyl",JAHJITLFJSDRCG-UHFFFAOYSA-N,Clc1ccc(c(Cl)c1Cl)c2c(Cl)c(Cl)c(Cl)c(Cl)c2Cl,-9.29
B-2956,"1,1'-biphenyl, 2,2',3,3',4,4',5,6,6'-nonachloro-",YGDPIDTZOQGPAX-UHFFFAOYSA-N,Clc1cc(Cl)c(c(Cl)c1Cl)c2c(Cl)c(Cl)c(Cl)c(Cl)c2Cl,-10.1035
B-2957,"2,2',3,3',5,6-hexachlorobiphenyl",RVWLHPJFOKUPNM-UHFFFAOYSA-N,Clc1cccc(c1Cl)c2c(Cl)c(Cl)cc(Cl)c2Cl,-8.6036
B-2958,"2,2',3,4,5,5'-hexachlorobiphenyl",UCLKLGIYGBLTSM-UHFFFAOYSA-N,Clc1ccc(Cl)c(c1)c2cc(Cl)c(Cl)c(Cl)c2Cl,-7.6794
B-2960,flamprop-isopropyl,IKVXBIIHQGXQRQ-UHFFFAOYSA-N,CC(C)OC(=O)C(C)N(C(=O)c1ccccc1)c2ccc(F)c(Cl)c2,-4.3056
B-2961,flamprop-methyl,RBNIGDFIUWJJEV-UHFFFAOYSA-N,COC(=O)C(C)N(C(=O)c1ccccc1)c2ccc(F)c(Cl)c2,-3.982
B-2962,prosulfocarb,NQLVQOSNDJXLKG-UHFFFAOYSA-N,CCCN(CCC)C(=O)SCc1ccccc1,-4.2798
B-2963,deltamethrin,OWZREIFADZCYQD-NSHGMRRFSA-N,CC1(C)[C@@H](C=C(Br)Br)[C@H]1C(=O)O[C@H](C#N)c2cccc(Oc3ccccc3)c2,-8.4024
B-2964,"hydrazinecarboxamide, 1-(2-hydroxyhexyl)-2-[(5-n",FRLFOQIGGOTYHP-AUWJEWJLSA-N,CCCCC(O)CN(\N=C/c1oc(cc1)[N+]([O-])=O)C(N)=O,-3.5716
B-2965,pyrimethanil,ZLIBICFPKPWGIZ-UHFFFAOYSA-N,Cc1cc(C)nc(Nc2ccccc2)n1,-3.2166
B-2967,"1,2,3,5-tetrachloronaphthalene",HJJKSUVYCQAMBG-UHFFFAOYSA-N,Clc1cccc2c(Cl)c(Cl)c(Cl)cc12,-7.8566
B-2968,"1,3,5,7-tetrachloronaphthalene",OTTCXKPQKOLSJN-UHFFFAOYSA-N,Clc1cc(Cl)c2cc(Cl)cc(Cl)c2c1,-7.8228
B-2969,ibuproxam,BYPIURIATSUHDW-UHFFFAOYSA-N,CC(C)Cc1ccc(cc1)C(C)C(=O)NO,-3.044
B-2971,mefluidide,OKIBNKKYNPBDRS-UHFFFAOYSA-N,CC(=O)Nc1cc(N[S](=O)(=O)C(F)(F)F)c(C)cc1C,-3.2365
B-2972,"24nh2pyrimidine,5(35-meo-4-oetome)benzyl",WSWJIZXMAUYHOE-UHFFFAOYSA-N,COCCOc1c(OC)cc(Cc2cnc(N)nc2N)cc1OC,-2.101
B-2973,"1(3h)-isobenzofuranone, 6-iodo-",GDWUNKJJSAKJSC-UHFFFAOYSA-N,Ic1ccc2COC(=O)c2c1,-3.2109
B-2974,"2-butenoic acid, 2-chloro-, (z)-",WMDBQMYVAIBBDH-IHWYPQMZSA-N,C\C=C(/Cl)C(O)=O,0.9189
B-2975,cefaclor (panoral),QYIYFLOTGYLRGG-GPCCPHFNSA-N,N[C@@H](C(=O)N[C@H]1[C@H]2SCC(=C(N2C1=O)C(O)=O)Cl)c3ccccc3,-1.5656
B-2976,"benzamide, n-(2-amino-1,1-dimethyl-2-oxoethyl)-",GNFOQSWHSQTXHR-UHFFFAOYSA-N,CC(C)(NC(=O)c1ccccc1)C(N)=O,-1.6154
B-2977,"1,2,3-trichloro-4-methoxybenzene",FRQUNVLMWIYOLV-UHFFFAOYSA-N,COc1ccc(Cl)c(Cl)c1Cl,-4.2918
B-2978,empenthrin,YUGWDVYLFSETPE-JLHYYAGUSA-N,CC\C=C(/C)C(OC(=O)C1C(C=C(C)C)C1(C)C)C#C,-6.3931
B-2979,"pentanamide, n,n'-1,2-ethanediylbis-",RPTHWMGVZGXIPQ-UHFFFAOYSA-N,CCCCC(=O)NCCNC(=O)CCCC,-1.8145
B-2980,chlorethoxyfos,XFDJMIHUAHSGKG-UHFFFAOYSA-N,CCO[P](=S)(OCC)OC(Cl)C(Cl)(Cl)Cl,-5.5263
B-2981,"2-pyrrolidinone, 1-nitroso-",KLZYCEYOOVIITI-UHFFFAOYSA-N,O=NN1CCCC1=O,0.0523
B-2982,"d-alloisoleucine, n-acetyl-",JDTWZSUNGHMMJM-CAHLUQPWSA-N,CC[C@H](C)[C@@H](NC(C)=O)C(O)=O,-0.5912
B-2983,"1,3-benzenediol, 5-(methylthio)-",QHMRZVIHLYUTOF-UHFFFAOYSA-N,CSc1cc(O)cc(O)c1,-1.7957
B-2984,"1,3-benzenediol, 5-(butylthio)-",OBUQICZSPJTRQI-UHFFFAOYSA-N,CCCCSc1cc(O)cc(O)c1,-2.5191
B-2986,bitertanol,VGPIBGGRCVEHQZ-UHFFFAOYSA-N,CC(C)(C)C(O)C(Oc1ccc(cc1)c2ccccc2)n3cncn3,-4.8292
B-2987,"2,2',3,4,6-pentachlorobiphenyl",QGDKRLQRLFUJPP-UHFFFAOYSA-N,Clc1ccccc1c2c(Cl)cc(Cl)c(Cl)c2Cl,-7.4346