ID,Name,InChIKey,SMILES,Solubility
C-1824,nandrolone  butyrate,GEOFXJTWUJMUFZ-UHFFFAOYSA-N,CCCC(=O)OC1CCC2C3CCC4=CC(=O)CCC4C3CCC12C,-5.91
C-1826,"5,6-dehydroisoandrosterone  valerate;  prasterone  valerate",XAFPTAQBZXAXLR-UHFFFAOYSA-N,CCCCC(=O)OC1CCC2(C)C3CCC4(C)C(CCC4=O)C3CC=C2C1,-4.76
C-1827,"chlormethiuron;  3-(4-chloro-2-methylphenyl)-1,3-dimethylthiourea",WELPARMRIRIBMB-UHFFFAOYSA-N,CNC(=S)N(C)C1=C(C)C=C(Cl)C=C1,-3.66
C-1828,4-diazobenzenesulfonic  acid,UEUIKXVPXLWUDU-UHFFFAOYSA-O,O[S](=O)(=O)C1=CC=C(C=C1)[N+]#N,-2.42
C-1830,pyracarbolid;  sicarol,YPCALTGLHFLNGA-UHFFFAOYSA-N,CC1=C(CCCO1)C(=O)NC2=CC=CC=C2,-2.56
C-1831,4-(methoxycarbonyloxy)acetanilide,NPTMYBDPDBTCPB-UHFFFAOYSA-N,COC(=O)OC1=CC=C(NC(C)=O)C=C1,-1.69
C-1832,4-aminotoluene-2-sulfonic acid,BRKFTWHPLMMNHF-UHFFFAOYSA-N,CC1=C(C=C(N)C=C1)[S](O)(=O)=O,-1.62
C-1833,propyl  4-acetylaminobenzoate;  4-acetylaminobenzoic acid propyl ester,TZBHZUCUDXQCSI-UHFFFAOYSA-N,CCCOC(=O)C1=CC=C(NC(C)=O)C=C1,-3.29
C-1834,3-propanoyloxymethyl-5-fluorouracil,BRSJKDUSGHPJJY-UHFFFAOYSA-N,CCC(=O)OCN1C(=O)NC=C(F)C1=O,-0.77
C-1835,6-methoxypteridine,AWIJPALBOQNRBS-UHFFFAOYSA-N,COC1=NC2=C(N=CN=C2)N=C1,-1.14
C-1836,7-methoxypteridine,NMUINCUJOZFODB-UHFFFAOYSA-N,COC1=NC2=C(C=NC=N2)N=C1,-0.91
C-1839,n1-isonicotinoyl-n2-hexanoylhydrazine,BSPIUCWIDOJHQH-UHFFFAOYSA-N,CCCCCC(=O)NNC(=O)C1=CC=NC=C1,-1.24
C-1841,l-dopa methyl ester,XBBDACCLCFWBSI-UHFFFAOYSA-N,COC(=O)C(N)CC1=CC(=C(O)C=C1)O,0.48
C-1843,"6,7-dimethylpteridine",HBHGSVQQEYTFFZ-UHFFFAOYSA-N,CC1=NC2=C(N=CN=C2)N=C1C,-0.46
C-1845,pteridine-7-thione; pteridine-7-thiol,NJPMKYVXPKVRHL-UHFFFAOYSA-N,S=C1NC2=C(C=NC=N2)N=C1,-2.71
C-1846,pteridine-2-thione,DAAQPMSPBHQGQA-UHFFFAOYSA-N,S=C1NC2=C(C=N1)N=CC=N2,-2.68
C-1847,ergothioneine,SSISHJJTAXXQAX-UHFFFAOYSA-N,C[N+](C)(C)C(CC1=CN=C(S)[NH]1)C([O-])=O,-0.46
C-1848,1-(n-propylcarbamoyl)-5-fluorouracil;  1-propylaminocarbonyl-5-fluorouracil,PIUCHDXNDBQRTH-UHFFFAOYSA-N,CCCNC(=O)N1C=C(F)C(=O)NC1=O,-1.83
C-1849,3-pentanoyl-5-fluorouracil;  3-valeroyl-5-fluorouracil,HNRADDKFURCLRD-UHFFFAOYSA-N,CCCCC(=O)N1C(=O)NC=C(F)C1=O,-2.3
C-1850,3-deazauridine,WIRVQQCUKDPURA-UHFFFAOYSA-N,OCC1OC(C(O)C1O)N2C=CC(=O)CC2=O,-0.77
C-1851,acetaminophen  butyrate,AHSNWUAHWPTIFM-UHFFFAOYSA-N,CCCC(=O)OC1=CC=C(NC(C)=O)C=C1,-2.83
C-1852,8-methyl-8h-pteridin-7-one,AUYUOHQABGMBSA-UHFFFAOYSA-N,CN1C(=O)C=NC2=C1N=CN=C2,-0.92
C-1853,methyltestosterone  acetate,RLIONZRKXHAVFB-UHFFFAOYSA-N,CC(=O)OC1(C)CCC2C3CCC4=CC(=O)CCC4(C)C3CCC12C,-5.28
C-1854,3-methyl-3h-pteridin-4-one,ADZLJYXPHYDHJU-UHFFFAOYSA-N,CN1C=NC2=C(N=CC=N2)C1=O,-1.07
C-1855,raffinose,MUPFEKGTMRGPLJ-UHFFFAOYSA-N,OCC1OC(OCC2OC(OC3(CO)OC(CO)C(O)C3O)C(O)C(O)C2O)C(O)C(O)C1O,0.3
C-1856,2-aminopurine-6-thione;  thioguanine,WYWHKKSPHMUBEB-UHFFFAOYSA-N,NC1=NC2=C(N=C[NH]2)C(=S)N1,-3.31
C-1857,4-[(ethoxycarbonyloxy)methoxy]acetanilide,BPRBJIUXTLFJML-UHFFFAOYSA-N,CCOC(=O)OCOC1=CC=C(NC(C)=O)C=C1,-2.43
C-1859,adrenosterone,RZRPTBIGEANTGU-UHFFFAOYSA-N,CC12CC(=O)C3C(CCC4=CC(=O)CCC34C)C1CCC2=O,-3.48
C-1860,norethindrone  dimethylpropionate,PZXAQHCWXLHKAY-UHFFFAOYSA-N,CC(C)(C)C(=O)OC1(CCC2C3CCC4=CC(=O)CCC4C3CCC12C)C#C,-7.16
C-1862,2-(trimethylacetoxy)benzoic  acid,OPARZKXAKOJBQN-UHFFFAOYSA-N,CC(C)(C)C(=O)OC1=C(C=CC=C1)C(O)=O,-3.01
C-1863,n-isonicotinoyl-n'-heptanoylhydrazine,XHGIJBYHKSZCDJ-UHFFFAOYSA-N,CCCCCCC(=O)NNC(=O)C1=CC=NC=C1,-2.1
C-1865,"2,6,8-triaminopurine",FNUSUXSXQXLDBC-UHFFFAOYSA-N,NC1=NC2=C([NH]1)N=C(N)N=C2N,-1.52
C-1866,7-methyl-3h-pteridin-4-one,ZFKCYEYVBSXGLU-UHFFFAOYSA-N,CC1=NC2=C(N=C1)C(=O)NC=N2,-1.56
C-1867,butyl  4-acetylaminobenzoate;  4-acetylaminobenzoic acid butyl ester,TYCZFKFSOQONBM-UHFFFAOYSA-N,CCCCOC(=O)C1=CC=C(NC(C)=O)C=C1,-3.46
C-1869,6-methyl-3h-pteridin-4-one;  4-hydroxy-6-methylpteridine,JQDJTEVUGHCYPQ-UHFFFAOYSA-N,CC1=NC2=C(N=CNC2=O)N=C1,-1.65
C-1870,"2,4-diaminopteridine",CITCTUNIFJOTHI-UHFFFAOYSA-N,NC1=NC2=C(N=CC=N2)C(=N1)N,-2.69
C-1871,testosterone butyrate,OMPTUWYLCDEFSJ-UHFFFAOYSA-N,CCCC(=O)OC1CCC2C3CCC4=CC(=O)CCC4(C)C3CCC12C,-5.93
C-1872,3-butanoyloxymethyl-5-fluorouracil,RKGNIPKNVYBZPC-UHFFFAOYSA-N,CCCC(=O)OCN1C(=O)NC=C(F)C1=O,-1.13
C-1873,2-[(4-acetylphenyl)hydrazono]malononitrile,CALHPSDTGPNZIJ-UHFFFAOYSA-N,CC(=O)C1=CC=C(NN=C(C#N)C#N)C=C1,-2.71
C-1874,4-amino-2(1h)-pteridinone;  4-amino-2-hydroxypteridine,ZYLMCRLXTUAWGM-UHFFFAOYSA-N,NC1=NC(=O)NC2=C1N=CC=N2,-3.36
C-1876,2-amino-4(1h)-pteridinone;  2-amino-4-hydroxypteridine,HNXQXTQTPAJEJL-UHFFFAOYSA-N,NC1=NC(=O)C2=C(N1)N=CC=N2,-3.97
C-1878,"6,7-pteridinedione",HNSVDKLARSSFGE-UHFFFAOYSA-N,O=C1NC2=C(NC1=O)N=CN=C2,-2.69
C-1879,4-acetoxybenzaldehydesemicarbazone,YIRVJBITGXXLMK-WUXMJOGZSA-N,CC(=O)OC1=CC=C(C=C1)\C=N\NC(N)=O,-2.84
C-1880,"4,7-pteridinedione;  4,7(3h,8h)-pteridinedione",GZSFNZAVQZGNTG-UHFFFAOYSA-N,O=C1NC2=C(N=C1)C(=O)NC=N2,-2.82
C-1881,7-dimethylaminopteridine,MPTKEBUBIGZGJH-UHFFFAOYSA-N,CN(C)C1=NC2=C(C=NC=N2)N=C1,-0.09
C-1883,"4,6-pteridinedione",BJZIBODCUPQTSW-UHFFFAOYSA-N,O=C1NC2=C(N=CNC2=O)N=C1,-2.96
C-1886,n-isonicotinoyl-n'-octanoylhydrazine,SYRLNYMGLYCYJS-UHFFFAOYSA-N,CCCCCCCC(=O)NNC(=O)C1=CC=NC=C1,-2.91
C-1887,testosterone valerate,UCNQPYVHDCHENM-UHFFFAOYSA-N,CCCCC(=O)OC1CCC2C3CCC4=CC(=O)CCC4(C)C3CCC12C,-6.19
C-1890,"wl 9385;  6-azido-n-butyl-n-ethyl-[1,3,5]triazine-2,4-diamine",OGYRXMQCIDHOMI-UHFFFAOYSA-N,CCCCN(CC)C1=NC(=NC(=N1)N=[N+]=[N-])N,-3.52
C-1892,"1-(1-aziridinyl)-2,4-dinitrobenzene",TVSWGBWBKSQDMI-UHFFFAOYSA-N,[O-][N+](=O)C1=CC=C(N2CC2)C(=C1)[N+]([O-])=O,-3
C-1894,4-(propoxycarbonyloxy)acetanilide,AHYLFQRWOBJBTE-UHFFFAOYSA-N,CCCOC(=O)OC1=CC=C(NC(C)=O)C=C1,-2.57
C-1895,3-pentanoyloxymethyl-5-fluorouracil;  3-valeroyloxymethyl-5-fluorouracil,KCQOJKOFEKZEPI-UHFFFAOYSA-N,CCCCC(=O)OCN1C(=O)NC=C(F)C1=O,-1.66
C-1896,aziprotryne,AFIIBUOYKYSPKB-UHFFFAOYSA-N,CSC1=NC(=NC(=N1)N=[N]#N)NC(C)C,-3.48
C-1898,7-methylmercaptopteridine; pteridine-7-methyl-thiol,VNPCIBFTAYHHLJ-UHFFFAOYSA-N,CSC1=NC2=C(C=NC=N2)N=C1,-1.55
C-1900,"3,4,5-trichlorophenoxyacetic acid",DAIMSMGGQIIQPI-UHFFFAOYSA-N,OC(=O)COC1=CC(=C(Cl)C(=C1)Cl)Cl,-2.94
C-1901,acetaminophen hexanoate,GTOMOLIKAAXJAC-UHFFFAOYSA-N,CCCCCC(=O)OC1=CC=C(NC(C)=O)C=C1,-4.14
C-1902,n-isonicotinoyl-n'-nonanoylhydrazine,XTEHYHADVNQGSI-UHFFFAOYSA-N,CCCCCCCCC(=O)NNC(=O)C1=CC=NC=C1,-3.52
C-1903,2-(diethylacetoxy)benzoic  acid,JOOGNBMRVNYBET-UHFFFAOYSA-N,CCC(CC)C(=O)OC1=C(C=CC=C1)C(O)=O,-1.84
C-1904,"2,3,5-trichlorophenoxyacetic  acid",GFMRARCDRIKDAV-UHFFFAOYSA-N,OC(=O)COC1=C(Cl)C(=CC(=C1)Cl)Cl,-3
C-1908,mepivacaine,INWLQCZOYSRPNW-UHFFFAOYSA-N,CN1CCCCC1C(=O)NC2=C(C)C=CC=C2C,-1.99
C-1909,2-benzoyloxy-(n-cyclohexyl)acetamide;  n-cyclohexyl-2-benzoyloxyacetamide,DQMPCJPRPFRUIT-UHFFFAOYSA-N,O=C(COC(=O)C1=CC=CC=C1)NC2CCCCC2,-3.9
C-1910,2-[(2-nitrophenyl)hydrazono]malononitrile,NKWOBFAONPVDDE-UHFFFAOYSA-N,[O-][N+](=O)C1=C(NN=C(C#N)C#N)C=CC=C1,-3.93
C-1916,dihydroequilin,NLLMJANWPUQQTA-UHFFFAOYSA-N,CC12CCC3C(=CCC4=C3C=CC(=C4)O)C1CCC2O,-4.4
C-1917,2-benzoylpyridine,GCSHUYKULREZSJ-UHFFFAOYSA-N,O=C(C1=CC=CC=C1)C2=NC=CC=C2,-2.02
C-1918,5-fluorouracil-3-methyl  hexanoate;  3-hexanoyloxymethyl-5-fluorouracil,OGJBAUXBDQIJFS-UHFFFAOYSA-N,CCCCCC(=O)OCN1C(=O)NC=C(F)C1=O,-2.11
C-1921,cycloxydim,GGWHBJGBERXSLL-NBVRZTHBSA-N,CCCC(=N\OCC)/C1=C(O)CC(CC1=O)C2CCCSC2,-3.58
C-1922,4-(butoxycarboxy)acetanilide,HMDOTBHCMSTMJG-UHFFFAOYSA-N,CCCCOC(=O)OC1=CC=C(NC(C)=O)C=C1,-3.37
C-1923,2-naphthyl  acetate,RJNPPEUAJCEUPV-UHFFFAOYSA-N,CC(=O)OC1=CC2=C(C=CC=C2)C=C1,-3.44
C-1924,nandrolone nonanoate,UVVFTQBZOQSECA-UHFFFAOYSA-N,CCCCCCCCC(=O)OC1CCC2C3CCC4=CC(=O)CCC4C3CCC12C,-5.72
C-1925,"2-benzoyloxy-n,n-(diethyl)propionamide;  2-benzoyloxy-n,n-(diethyl)propanoic acid amide",BZZFPIRKNVWTKJ-UHFFFAOYSA-N,CCN(CC)C(=O)C(C)OC(=O)C1=CC=CC=C1,-2.28
C-1926,1-(hydroxymethyl)glutethimide,RSSILZKLNLKCFH-UHFFFAOYSA-N,CCC1(CCC(=O)N(CO)C1=O)C2=CC=CC=C2,-1.66
C-1929,n-isonicotinoyl-n'-decanoylhydrazine;  n-decanoyl-n'-isonicotinoylhydrazine,MFLFKRHHEIABRC-UHFFFAOYSA-N,CCCCCCCCCC(=O)NNC(=O)C1=CC=NC=C1,-4.17
C-1930,di(4-tolyl)  ether,YWYHGNUFMPSTTR-UHFFFAOYSA-N,CC1=CC=C(OC2=CC=C(C)C=C2)C=C1,-4.85
C-1931,4-[(2-methoxy)ethoxycarbonyloxy]acetanilide,KYTDPGSAMIDEED-UHFFFAOYSA-N,COCCOC(=O)OC1=CC=C(NC(C)=O)C=C1,-1.69
C-1933,n-hydroxymethyl-5-chlorobenzoxazol-2-one; n-(hydroxymethyl)chlorzoxazone,FSCPTWHCVYVMGT-UHFFFAOYSA-N,OCN1C(=O)OC2=CC=C(Cl)C=C12,-2.7
C-1934,1-acetylallopurinol,HBVOLZAKVSHTFL-UHFFFAOYSA-N,CC(=O)[N]1N=CC2=C1N=CNC2=O,-2.38
C-1935,"tridiphane;  2-(3,5-dichlorophenyl)-2-(2,2,2-trichloroethyl)oxirane",IBZHOAONZVJLOB-UHFFFAOYSA-N,ClC1=CC(=CC(=C1)C2(CO2)CC(Cl)(Cl)Cl)Cl,-5.25
C-1937,"6,7-dimethyl-3h-pteridin-4-one;  4-hydroxy-6,7-dimethylpteridine",YZZHLQUXFAOLAA-UHFFFAOYSA-N,CC1=NC2=C(N=C1C)C(=O)NC=N2,-2.29
C-1938,canrenoic  acid,PBKZPPIHUVSDNM-UHFFFAOYSA-N,CC12CCC(=O)C=C1C=CC3C2CCC4(C)C3CCC4(O)CCC(O)=O,-5.17
C-1939,"2-oxo-5-indolinyl acetate;  acetic acid 2-oxo-2,3-dihydro-1h-indol-5-yl ester;  5-acetoxy-2-oxo-2,3-dihydroindole",HFLJOXHDBCRLQR-UHFFFAOYSA-N,CC(=O)OC1=CC2=C(NC(=O)C2)C=C1,-1.54
C-1942,"6,7-diethylpteridine",ULZKCUXGSDTDQB-UHFFFAOYSA-N,CCC1=NC2=C(N=CN=C2)N=C1CC,-0.18
C-1944,amiloride,XSDQTOBWRPYKKA-UHFFFAOYSA-N,NC(=N)NC(=O)C1=NC(=C(N)N=C1N)Cl,-2.87
C-1948,2'-diethylaminoethyl  4-acetamidobenzoate,YMABTXMPJQRLCQ-UHFFFAOYSA-N,CCN(CC)CCOC(=O)C1=CC=C(NC(C)=O)C=C1,-1.65
C-1949,2-{[4-(2-chloroacetyl)phenyl]hydrazono}malononitrile,ARUUDRZOVHJRDG-UHFFFAOYSA-N,ClCC(=O)C1=CC=C(NN=C(C#N)C#N)C=C1,-3.19
C-1950,l-dopa pentyl ester,WGYXRPGKLMQCLW-UHFFFAOYSA-N,CCCCCOC(=O)C(N)CC1=CC(=C(O)C=C1)O,-0.99
C-1951,"benzyl  2,2-diethylmalonurate",WVPRQIREPMNEIX-UHFFFAOYSA-N,CCC(CC)(C(=O)NC(N)=O)C(=O)OCC1=CC=CC=C1,-3.66
C-1952,acetaminophen  octanoate;  4-(octanoyloxy)acetanilide,FMSIHPQFJSZQTA-UHFFFAOYSA-N,CCCCCCCC(=O)OC1=CC=C(NC(C)=O)C=C1,-4.44
C-1953,n-cyclohexyl-n-methyl-2-(benzoyloxy)acetamide,PDIJPBODFJXKMS-UHFFFAOYSA-N,CN(C1CCCCC1)C(=O)COC(=O)C2=CC=CC=C2,-3.29
C-1954,"2-amino-4,6(1h,5h)-pteridinedione;  2-amino-4,6-pteridinediole;  xanthopterine",VURKRJGMSKJIQX-UHFFFAOYSA-N,NC1=NC(=O)C2=C(N1)N=CC(=O)N2,-3.86
C-1955,"2,4,7(1h,3h,8h)-pteridinetrione;  2,4,7-pteridinetrione",BCVUYVOMXUKYFC-UHFFFAOYSA-N,O=C1NC(=O)C2=C(N1)NC(=O)C=N2,-3.34
C-1956,n-[2-(benzoyloxy)acetyl]-2-ethylpiperidine,WXHDYGRKHGIEOF-UHFFFAOYSA-N,CCC1CCCCN1C(=O)COC(=O)C2=CC=CC=C2,-2.72
C-1957,3-octanoyloxymethyl-5-fluorouracil,PEGCWSPKBALNEQ-UHFFFAOYSA-N,CCCCCCCC(=O)OCN1C(=O)NC=C(F)C1=O,-3.29
C-1958,"4,6,7-pteridinetrione;  4,6,7(3h,5h,8h)-pteridinetrione",HMMIQMIGJAIOAZ-UHFFFAOYSA-N,O=C1NC=NC2=C1NC(=O)C(=O)N2,-3.69
C-1959,equilin,WKRLQDKEXYKHJB-UHFFFAOYSA-N,CC12CCC3C(=CCC4=C3C=CC(=C4)O)C1CCC2=O,-4.99
C-1960,methyl  2-ethyl-2-phenylmalonurate,MYLAIRXFVDTCCC-UHFFFAOYSA-N,CCC(C(=O)NC(N)=O)(C(=O)OC)C1=CC=CC=C1,-2.75
C-1962,4-[(1-methyl-2-methoxy)ethoxy]carboxyacetanilide; 4-[(2-methoxy-1-methylethyloxy)carbonyloxy]acetanilide,DRVLSPUGFXRFLW-UHFFFAOYSA-N,COCC(C)OC(=O)OC1=CC=C(NC(C)=O)C=C1,-2.48
C-1963,4-hexyloxycarbonyloxyacetanilide,QWBBNHZKIXNKGJ-UHFFFAOYSA-N,CCCCCCOC(=O)OC1=CC=C(NC(C)=O)C=C1,-4.32
C-1965,"1,5-bis(hydroxymethyl)allopurinol",XLLZCADRJDALIP-UHFFFAOYSA-N,OCN1C=NC2=C(C=N[N]2CO)C1=O,-1.72
C-1966,1-propanoylallopurinol,ZUXVZGNVGRXENQ-UHFFFAOYSA-N,CCC(=O)[N]1N=CC2=C1N=CNC2=O,-2.81
C-1967,"n,n-diisobutyl-2-benzoyloxyacetamide",KXYFWLVSYHRZJL-UHFFFAOYSA-N,CC(C)CN(CC(C)C)C(=O)COC(=O)C1=CC=CC=C1,-3.56
C-1969,"norethindrone  enanthate, norethindrone heptanoate; norethisterone enanthate",APTGJECXMIKIET-UHFFFAOYSA-N,CCCCCCC(=O)OC1(CCC2C3CCC4=CC(=O)CCC4C3CCC12C)C#C,-6.89
C-1971,picein,GOZCEKPKECLKNO-UHFFFAOYSA-N,CC(=O)C1=CC=C(OC2OC(CO)C(O)C(O)C2O)C=C1,-1.17
C-1972,"6-(2-hydroxyethyl)amino-7-methyl-3,7-dihydro-2h-purin-2-one",NRFNHVNHUCNPFW-UHFFFAOYSA-N,C[N]1C=NC2=C1C(=NC(=O)N2)NCCO,0.08
C-1973,"1-[5-(2-chloro-1,1-dimethylethyl)-[1,3,4]thiadiazol-2-yl]-1,3-dimethylurea",IYKPHPWPBFMVHA-UHFFFAOYSA-N,CNC(=O)N(C)C1=NN=C(S1)C(C)(C)CCl,-2.47
C-1976,"2-benzoyloxy-n,n-bis(2-hydroxypropyl)acetamide; n,n-bis(2-hydroxypropyl)-2-benzoyloxyacetamide",LDCFNNYCIXKMNJ-UHFFFAOYSA-N,CC(O)CN(CC(C)O)C(=O)COC(=O)C1=CC=CC=C1,-1.18
C-1978,acetaminophen  decanoate,MKSNUUCDBOSWNQ-UHFFFAOYSA-N,CCCCCCCCCC(=O)OC1=CC=C(NC(C)=O)C=C1,-4.53
C-1979,thiophenobarbital;  5-ethyl-5-phenyl-2-thiobarbituric  acid,GHHFRPRCYQNNDL-UHFFFAOYSA-N,CCC1(C(=O)NC(=S)NC1=O)C2=CC=CC=C2,-3.58
C-1982,4-biphenyl  isothiocyanate;  4-isothiocyanatobiphenyl,WPYSJFXXQNITBC-UHFFFAOYSA-N,S=C=NC1=CC=C(C=C1)C2=CC=CC=C2,-4.85
C-1983,4-amino-2-sulfobenzoic acid,YPNUYFJLBFZDTE-UHFFFAOYSA-N,NC1=CC(=C(C=C1)C(O)=O)[S](O)(=O)=O,-1.86
C-1984,l-dopa cyclohexyl ester,YBJCMVKVPJXBGR-UHFFFAOYSA-N,NC(CC1=CC(=C(O)C=C1)O)C(=O)OC2CCCCC2,-1.27
C-1985,"1,2,3,6,7,8-hexahydropyrene",MBAIEZXRGAOPKH-UHFFFAOYSA-N,C1CC2=CC=C3CCCC4=CC=C(C1)C2=C34,-5.96
C-1986,"2,3,4,6-tetrachlorophenoxyacetic  acid",FCZCIRUCCZUXMC-UHFFFAOYSA-N,OC(=O)COC1=C(Cl)C(=C(Cl)C=C1Cl)Cl,-3.41
C-1987,1-butanoylallopurinol,ABLLZVRKYUXMHV-UHFFFAOYSA-N,CCCC(=O)[N]1N=CC2=C1N=CNC2=O,-3.27
C-1988,"2-amino-6,7-diethylpteridine",BTBIATCZGBXLGC-UHFFFAOYSA-N,CCC1=NC2=C(N=C(N)N=C2)N=C1CC,-3.04
C-1990,biphenyl-4-ylacetic acid;  4-biphenylacetic  acid,QRZAKQDHEVVFRX-UHFFFAOYSA-N,OC(=O)CC1=CC=C(C=C1)C2=CC=CC=C2,-3.73
C-1992,"4-amino-6,7-diethylpteridine",HHDDWTCUQVPOBP-UHFFFAOYSA-N,CCC1=NC2=C(N=C1CC)C(=NC=N2)N,-2.93
C-1993,"n1,n1-diethylsulfanilamide",LTFVELCIFWEGGA-UHFFFAOYSA-N,CCN(CC)[S](=O)(=O)C1=CC=C(N)C=C1,-2.63
C-1996,4-acetoxybiphenyl;  4-biphenylyl  acetate,MISFQCBPASYYGV-UHFFFAOYSA-N,CC(=O)OC1=CC=C(C=C1)C2=CC=CC=C2,-4.4
C-1998,epristeride; skf-105657,VAPSMQAHNAZRKC-UHFFFAOYSA-N,CC(C)(C)NC(=O)C1CCC2C3CC=C4C=C(CCC4(C)C3CCC12C)C(O)=O,-8.76
C-1999,amdinocillin; mecillinam,BWWVAEOLVKTZFQ-UHFFFAOYSA-N,CC1(C)SC2C(N=CN3CCCCCC3)C(=O)N2C1C(O)=O,-4.5
C-2001,"trifluridine;  alpha,alpha,alpha-trifluorothymidine;  2'-deoxy-5-(trifluoromethyl)uridine",VSQQQLOSPVPRAZ-UHFFFAOYSA-N,OCC1OC(CC1O)N2C=C(C(=O)NC2=O)C(F)(F)F,-0.71
C-2002,7-hydroxymethyltheophylline,QAPJAMJGLYYNHX-UHFFFAOYSA-N,CN1C(=O)N(C)C2=C([N](CO)C=N2)C1=O,-0.41
C-2005,1-(hydroxymethyl)phenobarbital,ZHCBZZQETYNMFV-UHFFFAOYSA-N,CCC1(C(=O)NC(=O)N(CO)C1=O)C2=CC=CC=C2,-1.6
C-2007,6-mercapto-(s-acetoxymethyl)purine,WOHYIPNWSCCKOE-UHFFFAOYSA-N,CC(=O)OCSC1=NC=NC2=C1N=C[NH]2,-2.15
C-2008,"2,4,6,7-pteridinetetraone",MVKRISPIRVEPFM-UHFFFAOYSA-N,O=C1NC(=O)C2=C(N1)NC(=O)C(=O)N2,-4.06
C-2011,ranitidine,VMXUWOKSQNHOCA-LCYFTJDESA-N,CNC(/NCCSCC1=CC=C(CN(C)C)O1)=C/[N+]([O-])=O,-2.5
C-2012,prednisone,XOFYZVNMUHMLCC-UHFFFAOYSA-N,CC12CC(=O)C3C(CCC4=CC(=O)C=CC34C)C1CCC2(O)C(=O)CO,-3.48
C-2013,vasicinone,SDIVYZXRQHWCKF-UHFFFAOYSA-N,OC1CCN2C(=O)C3=C(C=CC=C3)N=C12,-2.1
C-2015,7-propyltheophylline,HGFWMGARSDHJFP-UHFFFAOYSA-N,CCC[N]1C=NC2=C1C(=O)N(C)C(=O)N2C,0.02
C-2017,"1,3-dihydro-4-ethyl-5-[(pyridin-4-yl)carbonyl]imidazol-2-one",OQGWJZOWLHWFME-UHFFFAOYSA-N,CCC1=C(NC(=O)N1)C(=O)C2=CC=NC=C2,-1.99
C-2018,"n,o-diacetyl-l-tyrosinamide",QETYUVKBQJLLLM-UHFFFAOYSA-N,CC(=O)NC(CC1=CC=C(OC(C)=O)C=C1)C(N)=O,-1.9
C-2020,metronidazole  phosphate,GFFOAZOYBIIJHI-UHFFFAOYSA-N,CC1=NC=C([N]1CCO[P](O)(O)=O)[N+]([O-])=O,-1.38
C-2023,mepanipyrim;  2-anilino-4-methyl-6-(1-propynyl)pyrimidine,CIFWZNRJIBNXRE-UHFFFAOYSA-N,CC#CC1=NC(=NC(=C1)C)NC2=CC=CC=C2,-4.6
C-2024,6-(s-propanoyloxymethyl)mercaptopurine,WQEDLDHMYLYHIP-UHFFFAOYSA-N,CCC(=O)OCSC1=NC=NC2=C1N=C[NH]2,-2.39
C-2028,cyclacillin;  wy-4508;   6-(1-aminocyclohexanecarboxamido)penicillanic acid,HGBLNBBNRORJKI-UHFFFAOYSA-N,CC1(C)SC2C(NC(=O)C3(N)CCCCC3)C(=O)N2C1C(O)=O,-1.04
C-2029,n-(3-tolyl)anthranilic  acid;  2-(3-tolylamino)benzoic acid,JODCQKTVDXZQEP-UHFFFAOYSA-N,CC1=CC=CC(=C1)NC2=CC=CC=C2C(O)=O,-5.06
C-2032,"4-amino-6,7-diethyl-1h-pteridin-2-one;  4-amino-6,7-diethyl-2-hydroxypteridine",UNOWZWFKTDNJLH-UHFFFAOYSA-N,CCC1=NC2=C(N=C1CC)C(=NC(=O)N2)N,-3.55
C-2033,"2-amino-6,7-diethyl-3h-pteridin-4-one;  2-amino-6,7-diethyl-4-hydroxypteridine",GUJHFRPMSQFYJM-UHFFFAOYSA-N,CCC1=NC2=C(N=C1CC)C(=O)NC(=N2)N,-4.28
C-2037,"6,7-diethyl-1h-pteridine-2,4-dione;  ""2,4-dihydroxy-6,7-diethylpteridine""",PNLRJGYHLCFMLM-UHFFFAOYSA-N,CCC1=NC2=C(N=C1CC)C(=O)NC(=O)N2,-2.39
C-2038,purin-6-ylmercaptomethyl butyrate; s-butanoyloxymethyl-6-mercaptopurine; butanoic acid 9h-purin-6-ylthiomethyl ester,QEDDLDVOLQFFLS-UHFFFAOYSA-N,CCCC(=O)OCSC1=NC=NC2=C1N=C[NH]2,-2.69
C-2039,coniferin dihydrate,SFLMUHDGSQZDOW-NSCUHMNNSA-N,COC1=C(OC2OC(CO)C(O)C(O)C2O)C=CC(=C1)\C=C\CO,-1.87
C-2041,n-(3-aminophenyl)anthranilic  acid;  3'-aminofenamic acid,UIPDOEPZZQRQKQ-UHFFFAOYSA-N,NC1=CC=CC(=C1)NC2=CC=CC=C2C(O)=O,-4.09
C-2042,pentachlorophenoxyacetic  acid,OBEUDXCKNSDQIL-UHFFFAOYSA-N,OC(=O)COC1=C(Cl)C(=C(Cl)C(=C1Cl)Cl)Cl,-3.75
C-2043,"1,3,5,8-tetrachloronaphthalene",VFTLNRFRXWCJJK-UHFFFAOYSA-N,ClC1=CC2=C(C(=CC=C2Cl)Cl)C(=C1)Cl,-7.51
C-2044,9-(2-hydroxy-3-nonyl)adenine,IOSAAWHGJUZBOG-UHFFFAOYSA-N,CCCCCCC(C(C)O)[N]1C=NC2=C1N=CN=C2N,-2.25
C-2045,"myclozolin; 3-(3,5-dichlorophenyl)-5-methoxymethyl-5-methyl-oxazolidine-2,4-dione",FTCOKXNKPOUEFH-UHFFFAOYSA-N,COCC1(C)OC(=O)N(C1=O)C2=CC(=CC(=C2)Cl)Cl,-4.66
C-2046,"rufinamide;  1-(2,6-difluorobenzyl)-1h-1,2,3-triazole-4-carboxamide",POGQSBRIGCQNEG-UHFFFAOYSA-N,NC(=O)C1=C[N](CC2=C(F)C=CC=C2F)N=N1,-3.5
C-2048,n-(3-hydroxyphenyl)anthranilic  acid;  3'-hydroxyfenamic acid,YQULREKUYCCSJA-UHFFFAOYSA-N,OC(=O)C1=CC=CC=C1NC2=CC(=CC=C2)O,-3.54
C-2049,n-(2-benzoyloxyacetyl)proline methyl ester,UQIKOYWGLUXMNE-UHFFFAOYSA-N,COC(=O)C1CCCN1C(=O)COC(=O)C2=CC=CC=C2,-2.08
C-2050,"quinclorac; 3,7-dichloro-8-carboxyquinoline; 3,7-dichloro-8-quinolinecarboxylic acid",FFSSWMQPCJRCRV-UHFFFAOYSA-N,OC(=O)C1=C(Cl)C=CC2=C1N=CC(=C2)Cl,-3.57
C-2052,8-phenylpurine,ULWZFKSDBAAHEI-UHFFFAOYSA-N,[NH]1C2=C(N=CN=C2)N=C1C3=CC=CC=C3,-3.06
C-2053,n-isonicotinoyl-n'-benzoylhydrazine;  n-benzoyl-n'-isonicotinoylhydrazine,UHMAPOLDLKSAOI-UHFFFAOYSA-N,O=C(NNC(=O)C1=CC=NC=C1)C2=CC=CC=C2,-2.54
C-2054,"styphnic  acid; 1,3-dihydroxy-2,4,6-trinitrobenzene",IXHMHWIBCIYOAZ-UHFFFAOYSA-N,OC1=C(C(=C(C=C1[N+]([O-])=O)[N+]([O-])=O)O)[N+]([O-])=O,-3.51
C-2055,1-bromo-2-naphthyl  isothiocyanate;  1-bromo-2-isothiocyanatonaphthalene,QCDAGXOLJWOIFN-UHFFFAOYSA-N,BrC1=C(C=CC2=CC=CC=C12)N=C=S,-4.32
C-2056,"n1,n4-diacetylsulfanilamide;  n4-acetylsulfacetamide",YTJJPFRVBNFIBN-UHFFFAOYSA-N,CC(=O)NC1=CC=C(C=C1)[S](=O)(=O)NC(C)=O,-2.78
C-2058,fluenetil,XAERLJMOUYEBAB-UHFFFAOYSA-N,FCCOC(=O)CC1=CC=C(C=C1)C2=CC=CC=C2,-5.01
C-2059,isoxsuprine,BMUKKTUHUDJSNZ-UHFFFAOYSA-N,CC(COC1=CC=CC=C1)NC(C)C(O)C2=CC=C(O)C=C2,-1.53
C-2060,"n,n-(dicyclohexyl)acetamido  benzoate;  analog 29",XDEYTBJLAPSTGO-UHFFFAOYSA-N,O=C(COC(=O)C1=CC=CC=C1)N(C2CCCCC2)C3CCCCC3,-5.06
C-2061,7-acetyltheophylline,RCDRLZYAKDYXMM-UHFFFAOYSA-N,CN1C(=O)N(C)C2=C([N](C=N2)C(C)=O)C1=O,-1.4
C-2062,"1,5-diphenylthiocarbazone;  dithizone",UOFGSWVZMUXXIY-UHFFFAOYSA-N,S=C(NNC1=CC=CC=C1)N=NC2=CC=CC=C2,-6.61
C-2064,s-valeroyloxymethyl-6-mercaptopurine;  s-pentanoyloxymethyl-6-mercaptopurine,SFTFTJMAUOPCTA-UHFFFAOYSA-N,CCCCC(=O)OCSC1=NC=NC2=C1N=C[NH]2,-3.1
C-2067,3-benzoylphenyl  isothiocyanate; 3-isothiocyanatobenzophenone,OKLVWLLVWTVJRP-UHFFFAOYSA-N,O=C(C1=CC=CC=C1)C2=CC=CC(=C2)N=C=S,-5.4
C-2069,n-(3-chlorophenyl)anthranilic  acid;  3'-chlorofenamic acid,OVMWPVYEBVFZHM-UHFFFAOYSA-N,OC(=O)C1=CC=CC=C1NC2=CC(=CC=C2)Cl,-5.3
C-2070,tianafac,GGXDSIUMQOZKNP-UHFFFAOYSA-N,CC1=C(CC(O)=O)SC2=C1C=CC(=C2)Cl,-3.84
C-2073,n-isonicotinoyl-n'-(phenylacetyl)hydrazine,FCRSOBDFPFGDHL-UHFFFAOYSA-N,O=C(CC1=CC=CC=C1)NNC(=O)C2=CC=NC=C2,-2.47
C-2074,2-amino-7-naphthalenesulfonic  acid,OKAUOXITMZTUOJ-UHFFFAOYSA-N,NC1=CC2=C(C=C1)C=CC(=C2)[S](O)(=O)=O,-3.05
C-2075,"2,4-dimethylthiazole-5-carboxanilide",UDSJPFPDKCMYBD-UHFFFAOYSA-N,CC1=NC(=C(S1)C(=O)NC2=CC=CC=C2)C,-1.73
C-2076,"2,4',6-trichlorodiphenyl  ether",ZMRFCSWFCKICQE-UHFFFAOYSA-N,ClC1=CC=C(OC2=C(Cl)C=CC=C2Cl)C=C1,-5.91
C-2077,6-(hexanoyloxymethylthio)purine,AKLIYCJZHPSMMA-UHFFFAOYSA-N,CCCCCC(=O)OCSC1=NC=NC2=C1N=C[NH]2,-3.63
C-2078,1-amino-6-naphthalenesulfonic  acid;  5-amino-2-naphthalenesulfonic acid,UWPJYQYRSWYIGZ-UHFFFAOYSA-N,NC1=CC=CC2=C1C=CC(=C2)[S](O)(=O)=O,-2.24
C-2080,n-(3-anisyl)anthranilic  acid;   2-(3-methoxyphenylamino)benzoic acid,SSRGDXQQJKAWKX-UHFFFAOYSA-N,COC1=CC=CC(=C1)NC2=CC=CC=C2C(O)=O,-4.8