Chemical name,Crystal structure CSD refcode,LogS exp (mol/L),Reference,SMILES,Smiles Source,Chemspider reference number,InChl,References for LogS experimental values,
Mifepristone,ZIDLED,-5.75,5,O=C5\C=C4/C(=C3/[C@@H](c1ccc(N(C)C)cc1)C[C@]2([C@@H](CC[C@]2(C#CC)O)[C@@H]3CC4)C)CC5,ChemSpider,49889,"InChI=1S/C29H35NO2/c1-5-15-29(32)16-14-26-24-12-8-20-17-22(31)11-13-23(20)27(24)25(18-28(26,29)2)19-6-9-21(10-7-19)30(3)4/h6-7,9-10,17,24-26,32H,8,11-14,16,18H2,1-4H3/t24-,25+,26-,28-,29-/m0/s1",,
Tolbutamide,ZZZPUS02,-3.47,1,O=S(=O)(c1ccc(cc1)C)NC(=O)NCCCC,ChemSpider,5304,"InChI=1S/C12H18N2O3S/c1-3-4-9-13-12(15)14-18(16,17)11-7-5-10(2)6-8-11/h5-8H,3-4,9H2,1-2H3,(H2,13,14,15)",,
Codeine,ZZZTSE03,-1.56,6,CN1CC[C@]23c4c5ccc(c4O[C@H]2[C@H](C=C[C@H]3[C@H]1C5)O)OC,ChemSpider,4447447,"InChI=1S/C18H21NO3/c1-19-8-7-18-11-4-5-13(20)17(18)22-16-14(21-2)6-3-10(15(16)18)9-12(11)19/h3-6,11-13,17,20H,7-9H2,1-2H3/t11-,12+,13-,17-,18-/m0/s1",,
Strychnine,ZZZUEE04,-3.33,3,O=C7N2c1ccccc1[C@@]64[C@@H]2[C@@H]3[C@@H](OC/C=C5\[C@@H]3C[C@@H]6N(CC4)C5)C7,ChemSpider,389877,"InChI=1S/C21H22N2O2/c24-18-10-16-19-13-9-17-21(6-7-22(17)11-12(13)5-8-25-16)14-3-1-2-4-15(14)23(18)20(19)21/h1-5,13,16-17,19-20H,6-11H2/t13-,16-,17-,19-,20-,21+/m0/s1",,