28
Lattice="8.25193613644701 0.0 0.0 0.0 8.25193613644701 0.0 0.0 0.0 11.89" Properties=species:S:1:pos:R:3:tags:I:1:forces:R:3 energy=-98.34061340206569 dipole="1.4031189475685382 1.4031189475685393 -0.19846220095443756" free_energy=-99.21108533237967 pbc="T T T"
Pd      -0.00692685      -0.00692685       3.96252019        3      -0.00837860      -0.00837860       0.00424573
Pd       2.75757223      -0.00692686       3.96252019        3       0.00837858      -0.00837858       0.00424572
Pd       5.50129076      -0.01359609       3.97477404        3       0.00000000      -0.01157704      -0.00480671
Pd      -0.00692686       2.75757223       3.96252019        3      -0.00837858       0.00837858       0.00424572
Pd       2.75757224       2.75757224       3.96252019        3       0.00837857       0.00837857       0.00424573
Pd       5.50129075       2.76424147       3.97477405        3       0.00000003       0.01157703      -0.00480672
Pd      -0.01359609       5.50129076       3.97477404        3      -0.01157704       0.00000000      -0.00480671
Pd       2.76424147       5.50129075       3.97477405        3       0.01157703       0.00000003      -0.00480672
Pd       5.50129075       5.50129075       3.96719604        3       0.00000003       0.00000003       0.00812411
Pd       1.37532269       1.37532269       5.88514951        2      -0.00000004      -0.00000004      -0.01688396
Pd       4.13458768       1.37532269       5.93979186        2       0.00754813       0.00000005      -0.00416538
Pd       6.86799384       1.37532269       5.93979185        2      -0.00754810      -0.00000002      -0.00416538
Pd       1.37532269       4.13458768       5.93979186        2       0.00000005       0.00754813      -0.00416538
Pd       4.12538000       4.12538000       5.99137566        2       0.00534342       0.00534342       0.00308474
Pd       6.87720152       4.12538000       5.99137566        2      -0.00534347       0.00534342       0.00308471
Pd       1.37532269       6.86799384       5.93979185        2      -0.00000002      -0.00754810      -0.00416538
Pd       4.12538000       6.87720152       5.99137566        2       0.00534342      -0.00534347       0.00308471
Pd       6.87720151       6.87720151       5.99137565        2      -0.00534340      -0.00534340       0.00308469
Pd      -0.00148731      -0.00148731       7.96175907        1       0.00982607       0.00982607      -0.00809723
Pd       2.75213267      -0.00148730       7.96175906        1      -0.00982603       0.00982604      -0.00809719
Pd       5.50129076       0.00378205       7.95153012        1      -0.00000001       0.00254973      -0.00431742
Pd      -0.00148730       2.75213267       7.96175906        1       0.00982604      -0.00982603      -0.00809719
Pd       2.75213269       2.75213269       7.96175907        1      -0.00982604      -0.00982604      -0.00809723
Pd       5.50129076       2.74686333       7.95153011        1      -0.00000000      -0.00254973      -0.00431742
Pd       0.00378205       5.50129076       7.95153012        1       0.00254973      -0.00000001      -0.00431742
Pd       2.74686333       5.50129076       7.95153011        1      -0.00254973      -0.00000000      -0.00431742
Pd       5.50129075       5.50129075       7.96890535        1      -0.00000001      -0.00000001       0.01467477
O        1.37532269       1.37532269       8.89752175        0       0.00000002       0.00000002      -0.01624417
