28
Lattice="8.25193613644701 0.0 0.0 0.0 8.25193613644701 0.0 0.0 0.0 11.89" Properties=species:S:1:pos:R:3:tags:I:1:forces:R:3 energy=-98.17151634629792 dipole="3.8563887088037063 2.1745277525541274e-07 -0.35272439844878906" free_energy=-99.02352505194258 pbc="T T T"
Pd      -0.00302790       0.00000000       3.96295090        3      -0.00096856       0.00000000       0.00873376
Pd       2.75367328       0.00000000       3.96295092        3       0.00096853       0.00000000       0.00873367
Pd       5.50129076       0.00000000       3.97393469        3       0.00000001       0.00000000      -0.00127525
Pd      -0.00254885       2.74497766       3.96515344        3      -0.00040931      -0.00281316       0.00324305
Pd       2.75319422       2.74497766       3.96515342        3       0.00040930      -0.00281309       0.00324306
Pd       5.50129075       2.74108219       3.95793268        3       0.00000002      -0.00203783      -0.00270173
Pd      -0.00254885       5.50695848       3.96515344        3      -0.00040931       0.00281316       0.00324305
Pd       2.75319422       5.50695848       3.96515342        3       0.00040930       0.00281309       0.00324306
Pd       5.50129075       5.51085395       3.95793268        3       0.00000002       0.00203783      -0.00270173
Pd       1.37532269       1.36953669       5.94027917        2      -0.00000007      -0.00009377       0.00864849
Pd       4.12026135       1.36917285       5.96394536        2       0.00058163       0.00165837       0.00289158
Pd       6.88232017       1.36917284       5.96394536        2      -0.00058156       0.00165834       0.00289159
Pd       1.37532270       4.12596807       5.93544875        2      -0.00000006       0.00000000      -0.00228467
Pd       4.13304383       4.12596807       5.93871666        2       0.00454741       0.00000000      -0.00687805
Pd       6.86953768       4.12596807       5.93871665        2      -0.00454735       0.00000000      -0.00687800
Pd       1.37532269       6.88239945       5.94027917        2      -0.00000007       0.00009377       0.00864849
Pd       4.12026135       6.88276329       5.96394536        2       0.00058163      -0.00165837       0.00289158
Pd       6.88232017       6.88276330       5.96394536        2      -0.00058156      -0.00165834       0.00289159
Pd      -0.05795816       0.00000000       8.01314031        1      -0.01481389       0.00000000      -0.03348737
Pd       2.80860353      -0.00000000       8.01314027        1       0.01481400       0.00000000      -0.03348738
Pd       5.50129076       0.00000000       7.94710949        1      -0.00000000       0.00000000       0.01633047
Pd      -0.00486410       2.76565877       7.91741191        1       0.00498974      -0.00048620      -0.00110449
Pd       2.75550948       2.76565877       7.91741194        1      -0.00498971      -0.00048617      -0.00110453
Pd       5.50129076       2.75767540       7.93334464        1      -0.00000002       0.00264632       0.00765023
Pd      -0.00486410       5.48627737       7.91741191        1       0.00498974       0.00048620      -0.00110449
Pd       2.75550948       5.48627737       7.91741194        1      -0.00498971       0.00048617      -0.00110453
Pd       5.50129076       5.49426074       7.93334464        1      -0.00000002      -0.00264632       0.00765023
O        1.37532272      -0.00000000       9.30348393        0      -0.00000064       0.00000000       0.03669753
