29
Lattice="8.25193613644701 0.0 0.0 0.0 8.25193613644701 0.0 0.0 0.0 11.89" Properties=species:S:1:pos:R:3:tags:I:1:forces:R:3 energy=-103.77040428402644 dipole="4.974229476478174 10.772194645899607 -0.2554383320004608" free_energy=-104.57802257722611 pbc="T T T"
Pd       0.00011377      -0.04757663       3.95453943        3      -0.00136520      -0.01187951       0.00919287
Pd       2.75053160      -0.04757663       3.95453947        3       0.00136519      -0.01187956       0.00919264
Pd       5.50129075      -0.04098984       3.94372282        3       0.00000005      -0.02722944       0.00997920
Pd      -0.00134314       2.71409114       3.95712412        3       0.00984617      -0.02524927       0.01531433
Pd       2.75198850       2.71409113       3.95712411        3      -0.00984616      -0.02524918       0.01531436
Pd       5.50129075       2.73946104       3.94653143        3       0.00000000      -0.02198521      -0.00497586
Pd      -0.00599142       5.45418715       3.97522647        3       0.00286955       0.00471309       0.00146057
Pd       2.75663678       5.45418715       3.97522647        3      -0.00286953       0.00471300       0.00146055
Pd       5.50129075       5.47395224       3.98024192        3       0.00000000      -0.01115954      -0.00125461
Pd       1.37532269       1.31748470       5.92583940        2      -0.00000009       0.01217830      -0.03877726
Pd       4.13677602       1.33598080       5.91448962        2       0.01036658       0.00905274      -0.00297799
Pd       6.86580549       1.33598080       5.91448964        2      -0.01036649       0.00905275      -0.00297813
Pd       1.37532267       4.06271293       5.94829683        2       0.00000011       0.02699178      -0.03507487
Pd       4.12301421       4.07340761       5.97577193        2      -0.01230603      -0.01180092       0.01592970
Pd       6.87956730       4.07340762       5.97577194        2       0.01230596      -0.01180098       0.01592968
Pd       1.37532269       6.82247075       5.93759899        2      -0.00000007      -0.00041515       0.01331714
Pd       4.11738947       6.85216797       5.97516271        2       0.01975379      -0.02067865       0.00413578
Pd       6.88519204       6.85216799       5.97516273        2      -0.01975374      -0.02067875       0.00413560
Pd      -0.04939862      -0.07413827       7.97397038        1      -0.00484535       0.03381353      -0.00340638
Pd       2.80004403      -0.07413827       7.97397037        1       0.00484534       0.03381351      -0.00340634
Pd       5.50129077      -0.02061317       7.92447137        1      -0.00000008      -0.01285396       0.03477294
Pd      -0.05403913       2.69373106       7.97427024        1       0.02011570       0.01620310       0.01579084
Pd       2.80468451       2.69373104       7.97427022        1      -0.02011571       0.01620319       0.01579087
Pd       5.50129076       2.70485265       7.94147828        1      -0.00000003      -0.00937850      -0.03444300
Pd       0.00528106       5.43881254       7.92376132        1       0.00493491       0.02165394      -0.00134321
Pd       2.74536430       5.43881254       7.92376134        1      -0.00493488       0.02165390      -0.00134333
Pd       5.50129075       5.46887642       7.94804188        1       0.00000001      -0.00633111       0.02872369
O        1.37532271       0.60375723       9.40641486        0      -0.00000006      -0.01359539      -0.00774900
O        1.37532269       2.01623525       9.40567150        0       0.00000004       0.02257990      -0.00197460
