28
Lattice="8.25193613644701 0.0 0.0 0.0 8.25193613644701 0.0 0.0 0.0 11.89" Properties=species:S:1:pos:R:3:tags:I:1:forces:R:3 energy=-98.17085767037689 dipole="3.9264955079957753 2.174503706588956e-07 -0.35672500549514213" free_energy=-99.023310143936 pbc="T T T"
Pd      -0.00312905      -0.00000000       3.96190864        3       0.00227121       0.00000000       0.01214853
Pd       2.75377443      -0.00000000       3.96190867        3      -0.00227131       0.00000000       0.01214831
Pd       5.50129076      -0.00000000       3.97367116        3       0.00000006       0.00000000      -0.00135255
Pd      -0.00271018       2.74544211       3.96473245        3       0.00362371      -0.00580620       0.00477659
Pd       2.75335556       2.74544210       3.96473243        3      -0.00362368      -0.00580608       0.00477660
Pd       5.50129075       2.74127370       3.95841737        3      -0.00000003      -0.00631026      -0.00413060
Pd      -0.00271018       5.50649403       3.96473245        3       0.00362371       0.00580620       0.00477659
Pd       2.75335556       5.50649404       3.96473243        3      -0.00362368       0.00580608       0.00477660
Pd       5.50129075       5.51066244       3.95841737        3      -0.00000003       0.00631026      -0.00413060
Pd       1.37532269       1.36911035       5.94032282        2      -0.00000010      -0.00316437       0.01342388
Pd       4.11972167       1.36907610       5.96370274        2       0.00082017       0.00231577       0.00053018
Pd       6.88285984       1.36907609       5.96370274        2      -0.00081997       0.00231572       0.00053025
Pd       1.37532270       4.12596807       5.93587788        2      -0.00000008       0.00000000      -0.00436773
Pd       4.13284387       4.12596807       5.93895859        2       0.00125284       0.00000000      -0.00667396
Pd       6.86973764       4.12596807       5.93895858        2      -0.00125274       0.00000000      -0.00667387
Pd       1.37532269       6.88282579       5.94032282        2      -0.00000010       0.00316437       0.01342388
Pd       4.11972167       6.88286004       5.96370274        2       0.00082017      -0.00231577       0.00053018
Pd       6.88285984       6.88286005       5.96370274        2      -0.00081997      -0.00231572       0.00053025
Pd      -0.05938343      -0.00000000       8.01393698        1       0.00613441       0.00000000      -0.02645018
Pd       2.81002883      -0.00000000       8.01393689        1      -0.00613435       0.00000000      -0.02645015
Pd       5.50129076      -0.00000000       7.94601441        1      -0.00000000       0.00000000       0.01664606
Pd      -0.00458794       2.76529755       7.91827123        1       0.00650944      -0.00377914      -0.00504406
Pd       2.75523332       2.76529755       7.91827127        1      -0.00650937      -0.00377910      -0.00504407
Pd       5.50129076       2.75723204       7.93309467        1      -0.00000004       0.00435050       0.00701087
Pd      -0.00458794       5.48663859       7.91827123        1       0.00650944       0.00377914      -0.00504406
Pd       2.75523332       5.48663859       7.91827127        1      -0.00650937       0.00377910      -0.00504407
Pd       5.50129076       5.49470410       7.93309467        1      -0.00000004      -0.00435050       0.00701087
O        1.37532270       0.00000000       9.30789436        0      -0.00000019       0.00000000      -0.02430007
